LAMMPS (29 Aug 2024 - Update 3)
Created orthogonal box = (-500 -50 -50) to (50 50 50)
  8 by 1 by 1 MPI processor grid
Adding 'type' field to requested per-atom fields
Scanning dump file ...
Reading snapshot from dump file ...
  orthogonal box = (-500 -50 -50) to (50 50 50)
  0 atoms before read
  4631 atoms in snapshot
  0 atoms purged
  0 atoms replaced
  0 atoms trimmed
  4631 atoms added
  4631 atoms after read
0 atoms in group added
4631 atoms in group initial
dynamic group attached defined
Reading eam potential file potentials/Cu_u3.eam with DATE: 2007-06-11
Read molecule template molecule_0:
# Nanoparticle Pt147_Ih.xyz
  1 molecules
  0 fragments
  147 atoms with max type 1
  0 bonds with max type 0
  0 angles with max type 0
  0 dihedrals with max type 0
  0 impropers with max type 0

CITE-CITE-CITE-CITE-CITE-CITE-CITE-CITE-CITE-CITE-CITE-CITE-CITE

Your simulation uses code contributions which should be cited:
- Type Label Framework: https://doi.org/10.1021/acs.jpcb.3c08419
The log file lists these citations in BibTeX format.

CITE-CITE-CITE-CITE-CITE-CITE-CITE-CITE-CITE-CITE-CITE-CITE-CITE

Neighbor list info ...
  update: every = 1 steps, delay = 0 steps, check = yes
  max neighbors/atom: 2000, page size: 100000
  master list distance cutoff = 6.95
  ghost atom cutoff = 6.95
  binsize = 3.475, bins = 159 29 29
  2 neighbor lists, perpetual/occasional/extra = 1 1 0
  (1) pair eam, perpetual
      attributes: half, newton on
      pair build: half/bin/atomonly/newton
      stencil: half/bin/3d
      bin: standard
  (2) compute coord/atom, occasional
      attributes: full, newton on
      pair build: full/bin/atomonly
      stencil: full/bin/3d
      bin: standard
Setting up Verlet run ...
  Unit style    : metal
  Current step  : 0
  Time step     : 0.002
Per MPI rank memory allocation (min/avg/max) = 4.04 | 4.415 | 6.945 Mbytes
   Step          Temp          PotEng         KinEng         TotEng         Press     
         0   0             -15691.826      0             -15691.826     -159.94022    
        50   298.33039     -16039.548      178.54312     -15861.005      47.401015    
Loop time of 0.401931 on 8 procs for 50 steps with 4778 atoms

Performance: 21.496 ns/day, 1.116 hours/ns, 124.399 timesteps/s, 594.381 katom-step/s
87.6% CPU use with 8 MPI tasks x no OpenMP threads

MPI task timing breakdown:
Section |  min time  |  avg time  |  max time  |%varavg| %total
---------------------------------------------------------------
Pair    | 0.12597    | 0.15553    | 0.26649    |  12.1 | 38.70
Neigh   | 2.8584e-05 | 0.0018198  | 0.01367    |  10.5 |  0.45
Comm    | 0.00010083 | 0.012057   | 0.087311   |  26.0 |  3.00
Output  | 0.0035869  | 0.0036099  | 0.0037155  |   0.1 |  0.90
Modify  | 0.10649    | 0.22441    | 0.26794    |  14.3 | 55.83
Other   |            | 0.004509   |            |       |  1.12

Nlocal:         597.25 ave        4631 max           0 min
Histogram: 7 0 0 0 0 0 0 0 0 1
Nghost:         110.25 ave         882 max           0 min
Histogram: 7 0 0 0 0 0 0 0 0 1
Neighs:          31378 ave      247038 max           0 min
Histogram: 7 0 0 0 0 0 0 0 0 1
FullNghs:      62745.8 ave      493994 max           0 min
Histogram: 7 0 0 0 0 0 0 0 0 1

Total # of neighbors = 501966
Ave neighs/atom = 105.05776
Neighbor list builds = 2
Dangerous builds = 0
0 atoms in group attached
4631 atoms in group initial
147 atoms in group added
dynamic group attached defined
Setting up Verlet run ...
  Unit style    : metal
  Current step  : 50
  Time step     : 0.002
Per MPI rank memory allocation (min/avg/max) = 4.826 | 5.322 | 8.568 Mbytes
   Step          Temp          PotEng         KinEng         TotEng         Press     
        50   289.15003     -16039.548      178.54312     -15861.005      47.401015    
       100   309.45226     -15969.836      191.07925     -15778.757      151.60167    
Loop time of 0.430096 on 8 procs for 50 steps with 4778 atoms

Performance: 20.089 ns/day, 1.195 hours/ns, 116.253 timesteps/s, 555.458 katom-step/s
86.3% CPU use with 8 MPI tasks x no OpenMP threads

MPI task timing breakdown:
Section |  min time  |  avg time  |  max time  |%varavg| %total
---------------------------------------------------------------
Pair    | 0.15943    | 0.18919    | 0.30292    |  11.2 | 43.99
Neigh   | 1.1542e-05 | 0.00077557 | 0.0058668  |   0.0 |  0.18
Comm    | 0.00085604 | 0.011965   | 0.086184   |  25.7 |  2.78
Output  | 0.0085726  | 0.0085936  | 0.0086905  |   0.0 |  2.00
Modify  | 0.090656   | 0.20712    | 0.24814    |  14.6 | 48.16
Other   |            | 0.01245    |            |       |  2.89

Nlocal:         597.25 ave        4631 max           0 min
Histogram: 7 0 0 0 0 0 0 0 0 1
Nghost:         110.25 ave         882 max           0 min
Histogram: 7 0 0 0 0 0 0 0 0 1
Neighs:        31342.9 ave      245485 max           0 min
Histogram: 7 0 0 0 0 0 0 0 0 1
FullNghs:        62681 ave      490932 max           0 min
Histogram: 7 0 0 0 0 0 0 0 0 1

Total # of neighbors = 501448
Ave neighs/atom = 104.94935
Neighbor list builds = 1
Dangerous builds = 0
0 atoms in group attached
4631 atoms in group initial
147 atoms in group added
dynamic group attached defined
Setting up Verlet run ...
  Unit style    : metal
  Current step  : 100
  Time step     : 0.002
Per MPI rank memory allocation (min/avg/max) = 4.826 | 5.322 | 8.568 Mbytes
   Step          Temp          PotEng         KinEng         TotEng         Press     
       100   309.45226     -15969.836      191.07925     -15778.757      151.60167    
       150   347.96535     -15958.828      214.86015     -15743.968     -13.612581    
Loop time of 0.401967 on 8 procs for 50 steps with 4778 atoms

Performance: 21.494 ns/day, 1.117 hours/ns, 124.388 timesteps/s, 594.328 katom-step/s
87.4% CPU use with 8 MPI tasks x no OpenMP threads

MPI task timing breakdown:
Section |  min time  |  avg time  |  max time  |%varavg| %total
---------------------------------------------------------------
Pair    | 0.14666    | 0.17742    | 0.28918    |  11.3 | 44.14
Neigh   | 1.15e-05   | 0.00068935 | 0.0049874  |   0.0 |  0.17
Comm    | 6.4206e-05 | 0.012013   | 0.085326   |  25.5 |  2.99
Output  | 0.004301   | 0.0043129  | 0.004354   |   0.0 |  1.07
Modify  | 0.090479   | 0.20427    | 0.24767    |  14.5 | 50.82
Other   |            | 0.003258   |            |       |  0.81

Nlocal:         597.25 ave        4631 max           0 min
Histogram: 7 0 0 0 0 0 0 0 0 1
Nghost:         110.25 ave         882 max           0 min
Histogram: 7 0 0 0 0 0 0 0 0 1
Neighs:        31042.4 ave      243801 max           0 min
Histogram: 7 0 0 0 0 0 0 0 0 1
FullNghs:      62084.8 ave      487602 max           0 min
Histogram: 7 0 0 0 0 0 0 0 0 1

Total # of neighbors = 496678
Ave neighs/atom = 103.95103
Neighbor list builds = 1
Dangerous builds = 0
0 atoms in group attached
4631 atoms in group initial
147 atoms in group added
dynamic group attached defined
Setting up Verlet run ...
  Unit style    : metal
  Current step  : 150
  Time step     : 0.002
Per MPI rank memory allocation (min/avg/max) = 4.826 | 5.322 | 8.568 Mbytes
   Step          Temp          PotEng         KinEng         TotEng         Press     
       150   347.96535     -15958.828      214.86015     -15743.968     -13.612581    
       200   345.91845     -15944.482      213.59624     -15730.885      2.1657501    
Loop time of 0.427646 on 8 procs for 50 steps with 4778 atoms

Performance: 20.204 ns/day, 1.188 hours/ns, 116.919 timesteps/s, 558.640 katom-step/s
85.8% CPU use with 8 MPI tasks x no OpenMP threads

MPI task timing breakdown:
Section |  min time  |  avg time  |  max time  |%varavg| %total
---------------------------------------------------------------
Pair    | 0.15734    | 0.18662    | 0.30676    |  11.5 | 43.64
Neigh   | 1.15e-05   | 0.0010576  | 0.0082138  |   8.3 |  0.25
Comm    | 5.4333e-05 | 0.013196   | 0.098456   |  28.1 |  3.09
Output  | 0.0035725  | 0.0035927  | 0.0036857  |   0.1 |  0.84
Modify  | 0.10002    | 0.21978    | 0.26312    |  14.7 | 51.39
Other   |            | 0.003402   |            |       |  0.80

Nlocal:         597.25 ave        4631 max           0 min
Histogram: 7 0 0 0 0 0 0 0 0 1
Nghost:         110.25 ave         882 max           0 min
Histogram: 7 0 0 0 0 0 0 0 0 1
Neighs:        30799.1 ave      243067 max           0 min
Histogram: 7 0 0 0 0 0 0 0 0 1
FullNghs:      61598.2 ave      486134 max           0 min
Histogram: 7 0 0 0 0 0 0 0 0 1

Total # of neighbors = 492786
Ave neighs/atom = 103.13646
Neighbor list builds = 1
Dangerous builds = 0
0 atoms in group attached
4631 atoms in group initial
147 atoms in group added
dynamic group attached defined
Setting up Verlet run ...
  Unit style    : metal
  Current step  : 200
  Time step     : 0.002
Per MPI rank memory allocation (min/avg/max) = 4.826 | 5.322 | 8.568 Mbytes
   Step          Temp          PotEng         KinEng         TotEng         Press     
       200   345.91845     -15944.482      213.59624     -15730.885      2.1657501    
       250   392.73744     -15967.955      242.50583     -15725.449      3.2332653    
Loop time of 0.434977 on 8 procs for 50 steps with 4778 atoms

Performance: 19.863 ns/day, 1.208 hours/ns, 114.948 timesteps/s, 549.224 katom-step/s
85.4% CPU use with 8 MPI tasks x no OpenMP threads

MPI task timing breakdown:
Section |  min time  |  avg time  |  max time  |%varavg| %total
---------------------------------------------------------------
Pair    | 0.19157    | 0.21562    | 0.31329    |   8.8 | 49.57
Neigh   | 1.1292e-05 | 0.0019442  | 0.01533    |  11.5 |  0.45
Comm    | 6.6619e-05 | 0.011004   | 0.084918   |  26.6 |  2.53
Output  | 0.0037202  | 0.0039913  | 0.0057264  |   1.0 |  0.92
Modify  | 0.092142   | 0.19558    | 0.23316    |  13.4 | 44.96
Other   |            | 0.00684    |            |       |  1.57

Nlocal:         597.25 ave        4631 max           0 min
Histogram: 7 0 0 0 0 0 0 0 0 1
Nghost:         110.25 ave         882 max           0 min
Histogram: 7 0 0 0 0 0 0 0 0 1
Neighs:        30783.5 ave      242342 max           0 min
Histogram: 7 0 0 0 0 0 0 0 0 1
FullNghs:        61567 ave      484684 max           0 min
Histogram: 7 0 0 0 0 0 0 0 0 1

Total # of neighbors = 492536
Ave neighs/atom = 103.08414
Neighbor list builds = 1
Dangerous builds = 0
0 atoms in group attached
4631 atoms in group initial
147 atoms in group added
dynamic group attached defined
Setting up Verlet run ...
  Unit style    : metal
  Current step  : 250
  Time step     : 0.002
Per MPI rank memory allocation (min/avg/max) = 4.826 | 5.322 | 8.568 Mbytes
   Step          Temp          PotEng         KinEng         TotEng         Press     
       250   392.73744     -15967.955      242.50583     -15725.449      3.2332653    
       300   358.02981     -15944.49       221.07471     -15723.415      107.5224     
Loop time of 0.432466 on 8 procs for 50 steps with 4778 atoms

Performance: 19.978 ns/day, 1.201 hours/ns, 115.616 timesteps/s, 552.413 katom-step/s
86.0% CPU use with 8 MPI tasks x no OpenMP threads

MPI task timing breakdown:
Section |  min time  |  avg time  |  max time  |%varavg| %total
---------------------------------------------------------------
Pair    | 0.17052    | 0.2002     | 0.30371    |   9.6 | 46.29
Neigh   | 1.2208e-05 | 0.00062895 | 0.0047033  |   0.0 |  0.15
Comm    | 6.6631e-05 | 0.011679   | 0.081748   |  24.6 |  2.70
Output  | 0.0044865  | 0.0047355  | 0.0054925  |   0.6 |  1.10
Modify  | 0.10417    | 0.20495    | 0.24524    |  12.9 | 47.39
Other   |            | 0.01028    |            |       |  2.38

Nlocal:         597.25 ave        4631 max           0 min
Histogram: 7 0 0 0 0 0 0 0 0 1
Nghost:         110.25 ave         882 max           0 min
Histogram: 7 0 0 0 0 0 0 0 0 1
Neighs:        30878.6 ave      242131 max           0 min
Histogram: 7 0 0 0 0 0 0 0 0 1
FullNghs:      61755.2 ave      484246 max           0 min
Histogram: 7 0 0 0 0 0 0 0 0 1

Total # of neighbors = 494042
Ave neighs/atom = 103.39933
Neighbor list builds = 1
Dangerous builds = 0
0 atoms in group attached
4631 atoms in group initial
147 atoms in group added
dynamic group attached defined
Setting up Verlet run ...
  Unit style    : metal
  Current step  : 300
  Time step     : 0.002
Per MPI rank memory allocation (min/avg/max) = 4.826 | 5.322 | 8.568 Mbytes
   Step          Temp          PotEng         KinEng         TotEng         Press     
       300   358.02981     -15944.49       221.07471     -15723.415      107.5224     
       350   389.9755      -15965.093      240.8004      -15724.292     -19.955931    
Loop time of 0.455081 on 8 procs for 50 steps with 4778 atoms

Performance: 18.986 ns/day, 1.264 hours/ns, 109.871 timesteps/s, 524.961 katom-step/s
85.1% CPU use with 8 MPI tasks x no OpenMP threads

MPI task timing breakdown:
Section |  min time  |  avg time  |  max time  |%varavg| %total
---------------------------------------------------------------
Pair    | 0.16583    | 0.19352    | 0.30896    |  10.7 | 42.53
Neigh   | 1.3416e-05 | 0.0010117  | 0.0078525  |   8.1 |  0.22
Comm    | 8.0043e-05 | 0.012936   | 0.096849   |  27.9 |  2.84
Output  | 0.0062738  | 0.0063542  | 0.0064485  |   0.1 |  1.40
Modify  | 0.11934    | 0.23431    | 0.2758     |  13.5 | 51.49
Other   |            | 0.006948   |            |       |  1.53

Nlocal:         597.25 ave        4631 max           0 min
Histogram: 7 0 0 0 0 0 0 0 0 1
Nghost:         110.25 ave         882 max           0 min
Histogram: 7 0 0 0 0 0 0 0 0 1
Neighs:        30829.6 ave      241799 max           0 min
Histogram: 7 0 0 0 0 0 0 0 0 1
FullNghs:      61659.2 ave      483598 max           0 min
Histogram: 7 0 0 0 0 0 0 0 0 1

Total # of neighbors = 493274
Ave neighs/atom = 103.23859
Neighbor list builds = 1
Dangerous builds = 0
0 atoms in group attached
4631 atoms in group initial
147 atoms in group added
dynamic group attached defined
Setting up Verlet run ...
  Unit style    : metal
  Current step  : 350
  Time step     : 0.002
Per MPI rank memory allocation (min/avg/max) = 4.826 | 5.322 | 8.568 Mbytes
   Step          Temp          PotEng         KinEng         TotEng         Press     
       350   389.9755      -15965.093      240.8004      -15724.292     -19.955931    
       400   342.24308     -15933.815      211.32679     -15722.488     -44.427754    
Loop time of 0.448084 on 8 procs for 50 steps with 4778 atoms

Performance: 19.282 ns/day, 1.245 hours/ns, 111.586 timesteps/s, 533.159 katom-step/s
86.0% CPU use with 8 MPI tasks x no OpenMP threads

MPI task timing breakdown:
Section |  min time  |  avg time  |  max time  |%varavg| %total
---------------------------------------------------------------
Pair    | 0.1584     | 0.19159    | 0.30929    |  11.7 | 42.76
Neigh   | 1.125e-05  | 0.00098391 | 0.007546   |   0.0 |  0.22
Comm    | 6.7291e-05 | 0.015824   | 0.10219    |  26.4 |  3.53
Output  | 0.0070908  | 0.0071043  | 0.0071519  |   0.0 |  1.59
Modify  | 0.094558   | 0.22528    | 0.27595    |  15.8 | 50.28
Other   |            | 0.007302   |            |       |  1.63

Nlocal:         597.25 ave        4631 max           0 min
Histogram: 7 0 0 0 0 0 0 0 0 1
Nghost:         110.25 ave         882 max           0 min
Histogram: 7 0 0 0 0 0 0 0 0 1
Neighs:          30649 ave      241626 max           0 min
Histogram: 7 0 0 0 0 0 0 0 0 1
FullNghs:      61303.8 ave      483298 max           0 min
Histogram: 7 0 0 0 0 0 0 0 0 1

Total # of neighbors = 490430
Ave neighs/atom = 102.64337
Neighbor list builds = 1
Dangerous builds = 0
0 atoms in group attached
4631 atoms in group initial
147 atoms in group added
dynamic group attached defined
Setting up Verlet run ...
  Unit style    : metal
  Current step  : 400
  Time step     : 0.002
Per MPI rank memory allocation (min/avg/max) = 4.826 | 5.322 | 8.568 Mbytes
   Step          Temp          PotEng         KinEng         TotEng         Press     
       400   342.24308     -15933.815      211.32679     -15722.488     -44.427754    
       450   409.91153     -15973.96       253.11041     -15720.85      -27.482237    
Loop time of 0.400683 on 8 procs for 50 steps with 4778 atoms

Performance: 21.563 ns/day, 1.113 hours/ns, 124.787 timesteps/s, 596.232 katom-step/s
86.3% CPU use with 8 MPI tasks x no OpenMP threads

MPI task timing breakdown:
Section |  min time  |  avg time  |  max time  |%varavg| %total
---------------------------------------------------------------
Pair    | 0.13689    | 0.17008    | 0.26285    |  10.0 | 42.45
Neigh   | 1.3125e-05 | 0.00063371 | 0.0047258  |   0.0 |  0.16
Comm    | 6.783e-05  | 0.011067   | 0.073377   |  22.8 |  2.76
Output  | 0.0097373  | 0.01042    | 0.010763   |   0.3 |  2.60
Modify  | 0.10448    | 0.20355    | 0.24748    |  12.7 | 50.80
Other   |            | 0.004937   |            |       |  1.23

Nlocal:         597.25 ave        4631 max           0 min
Histogram: 7 0 0 0 0 0 0 0 0 1
Nghost:         110.25 ave         882 max           0 min
Histogram: 7 0 0 0 0 0 0 0 0 1
Neighs:          30645 ave      241474 max           0 min
Histogram: 7 0 0 0 0 0 0 0 0 1
FullNghs:        61290 ave      482948 max           0 min
Histogram: 7 0 0 0 0 0 0 0 0 1

Total # of neighbors = 490320
Ave neighs/atom = 102.62034
Neighbor list builds = 1
Dangerous builds = 0
0 atoms in group attached
4631 atoms in group initial
147 atoms in group added
dynamic group attached defined
Setting up Verlet run ...
  Unit style    : metal
  Current step  : 450
  Time step     : 0.002
Per MPI rank memory allocation (min/avg/max) = 4.826 | 5.322 | 8.568 Mbytes
   Step          Temp          PotEng         KinEng         TotEng         Press     
       450   409.91153     -15973.96       253.11041     -15720.85      -27.482237    
       500   359.29406     -15946.063      221.85536     -15724.208      65.348704    
Loop time of 0.415565 on 8 procs for 50 steps with 4778 atoms

Performance: 20.791 ns/day, 1.154 hours/ns, 120.318 timesteps/s, 574.879 katom-step/s
87.4% CPU use with 8 MPI tasks x no OpenMP threads

MPI task timing breakdown:
Section |  min time  |  avg time  |  max time  |%varavg| %total
---------------------------------------------------------------
Pair    | 0.13734    | 0.1666     | 0.26949    |  10.9 | 40.09
Neigh   | 2.6043e-05 | 0.0016234  | 0.012325   |  10.0 |  0.39
Comm    | 6.1002e-05 | 0.011989   | 0.085119   |  25.4 |  2.89
Output  | 0.0070298  | 0.0078874  | 0.010133   |   1.4 |  1.90
Modify  | 0.11076    | 0.2216     | 0.26374    |  13.6 | 53.33
Other   |            | 0.005861   |            |       |  1.41

Nlocal:         597.25 ave        4631 max           0 min
Histogram: 7 0 0 0 0 0 0 0 0 1
Nghost:         110.25 ave         882 max           0 min
Histogram: 7 0 0 0 0 0 0 0 0 1
Neighs:        30813.5 ave      241358 max           0 min
Histogram: 7 0 0 0 0 0 0 0 0 1
FullNghs:      61620.5 ave      482664 max           0 min
Histogram: 7 0 0 0 0 0 0 0 0 1

Total # of neighbors = 492964
Ave neighs/atom = 103.17371
Neighbor list builds = 2
Dangerous builds = 0
0 atoms in group attached
4631 atoms in group initial
147 atoms in group added
dynamic group attached defined
Setting up Verlet run ...
  Unit style    : metal
  Current step  : 500
  Time step     : 0.002
Per MPI rank memory allocation (min/avg/max) = 4.826 | 5.322 | 8.568 Mbytes
   Step          Temp          PotEng         KinEng         TotEng         Press     
       500   359.29406     -15946.063      221.85536     -15724.208      65.348704    
       550   389.79663     -15964.797      240.68995     -15724.107     -59.40613     
Loop time of 0.461581 on 8 procs for 50 steps with 4778 atoms

Performance: 18.718 ns/day, 1.282 hours/ns, 108.323 timesteps/s, 517.569 katom-step/s
84.4% CPU use with 8 MPI tasks x no OpenMP threads

MPI task timing breakdown:
Section |  min time  |  avg time  |  max time  |%varavg| %total
---------------------------------------------------------------
Pair    | 0.16497    | 0.19164    | 0.27702    |   8.7 | 41.52
Neigh   | 1.5541e-05 | 0.0014805  | 0.011523   |   9.9 |  0.32
Comm    | 6.3501e-05 | 0.010116   | 0.068861   |  22.4 |  2.19
Output  | 0.013079   | 0.013099   | 0.013182   |   0.0 |  2.84
Modify  | 0.14004    | 0.23997    | 0.27913    |  11.6 | 51.99
Other   |            | 0.005276   |            |       |  1.14

Nlocal:         597.25 ave        4631 max           0 min
Histogram: 7 0 0 0 0 0 0 0 0 1
Nghost:         110.25 ave         882 max           0 min
Histogram: 7 0 0 0 0 0 0 0 0 1
Neighs:        30740.8 ave      241280 max           0 min
Histogram: 7 0 0 0 0 0 0 0 0 1
FullNghs:      61478.5 ave      482536 max           0 min
Histogram: 7 0 0 0 0 0 0 0 0 1

Total # of neighbors = 491828
Ave neighs/atom = 102.93596
Neighbor list builds = 1
Dangerous builds = 0
0 atoms in group attached
4631 atoms in group initial
147 atoms in group added
dynamic group attached defined
Setting up Verlet run ...
  Unit style    : metal
  Current step  : 550
  Time step     : 0.002
Per MPI rank memory allocation (min/avg/max) = 4.826 | 5.322 | 8.568 Mbytes
   Step          Temp          PotEng         KinEng         TotEng         Press     
       550   389.79663     -15964.797      240.68995     -15724.107     -59.40613     
       600   350.93139     -15941.563      216.69161     -15724.871     -58.787114    
Loop time of 0.432664 on 8 procs for 50 steps with 4778 atoms

Performance: 19.969 ns/day, 1.202 hours/ns, 115.563 timesteps/s, 552.160 katom-step/s
86.3% CPU use with 8 MPI tasks x no OpenMP threads

MPI task timing breakdown:
Section |  min time  |  avg time  |  max time  |%varavg| %total
---------------------------------------------------------------
Pair    | 0.1557     | 0.18296    | 0.28456    |   9.8 | 42.29
Neigh   | 1.2417e-05 | 0.00089799 | 0.0069489  |   0.0 |  0.21
Comm    | 7.2669e-05 | 0.011039   | 0.083089   |  26.0 |  2.55
Output  | 0.0030767  | 0.0042745  | 0.0062058  |   1.5 |  0.99
Modify  | 0.12529    | 0.22643    | 0.26562    |  12.2 | 52.33
Other   |            | 0.007061   |            |       |  1.63

Nlocal:         597.25 ave        4631 max           0 min
Histogram: 7 0 0 0 0 0 0 0 0 1
Nghost:         110.25 ave         882 max           0 min
Histogram: 7 0 0 0 0 0 0 0 0 1
Neighs:        30669.8 ave      241612 max           0 min
Histogram: 7 0 0 0 0 0 0 0 0 1
FullNghs:      61339.5 ave      483224 max           0 min
Histogram: 7 0 0 0 0 0 0 0 0 1

Total # of neighbors = 490716
Ave neighs/atom = 102.70322
Neighbor list builds = 1
Dangerous builds = 0
0 atoms in group attached
4631 atoms in group initial
147 atoms in group added
dynamic group attached defined
Setting up Verlet run ...
  Unit style    : metal
  Current step  : 600
  Time step     : 0.002
Per MPI rank memory allocation (min/avg/max) = 4.826 | 5.322 | 8.568 Mbytes
   Step          Temp          PotEng         KinEng         TotEng         Press     
       600   350.93139     -15941.563      216.69161     -15724.871     -58.787114    
       650   372.24864     -15950.956      229.85449     -15721.102      44.267291    
Loop time of 0.359158 on 8 procs for 50 steps with 4778 atoms

Performance: 24.056 ns/day, 0.998 hours/ns, 139.215 timesteps/s, 665.167 katom-step/s
87.8% CPU use with 8 MPI tasks x no OpenMP threads

MPI task timing breakdown:
Section |  min time  |  avg time  |  max time  |%varavg| %total
---------------------------------------------------------------
Pair    | 0.14469    | 0.17004    | 0.27161    |  10.4 | 47.34
Neigh   | 1.1792e-05 | 0.00063905 | 0.0047811  |   0.0 |  0.18
Comm    | 5.966e-05  | 0.0099579  | 0.07485    |  24.6 |  2.77
Output  | 0.0087719  | 0.0087887  | 0.008876   |   0.0 |  2.45
Modify  | 0.06538    | 0.16563    | 0.20149    |  14.1 | 46.12
Other   |            | 0.004109   |            |       |  1.14

Nlocal:         597.25 ave        4631 max           0 min
Histogram: 7 0 0 0 0 0 0 0 0 1
Nghost:         110.25 ave         882 max           0 min
Histogram: 7 0 0 0 0 0 0 0 0 1
Neighs:        30753.1 ave      241619 max           0 min
Histogram: 7 0 0 0 0 0 0 0 0 1
FullNghs:        61505 ave      483228 max           0 min
Histogram: 7 0 0 0 0 0 0 0 0 1

Total # of neighbors = 492040
Ave neighs/atom = 102.98033
Neighbor list builds = 1
Dangerous builds = 0
0 atoms in group attached
4631 atoms in group initial
147 atoms in group added
dynamic group attached defined
Setting up Verlet run ...
  Unit style    : metal
  Current step  : 650
  Time step     : 0.002
Per MPI rank memory allocation (min/avg/max) = 4.826 | 5.322 | 8.568 Mbytes
   Step          Temp          PotEng         KinEng         TotEng         Press     
       650   372.24864     -15950.956      229.85449     -15721.102      44.267291    
       700   372.28879     -15952.288      229.87929     -15722.408      62.061631    
Loop time of 0.392724 on 8 procs for 50 steps with 4778 atoms

Performance: 22.000 ns/day, 1.091 hours/ns, 127.316 timesteps/s, 608.315 katom-step/s
86.8% CPU use with 8 MPI tasks x no OpenMP threads

MPI task timing breakdown:
Section |  min time  |  avg time  |  max time  |%varavg| %total
---------------------------------------------------------------
Pair    | 0.13561    | 0.16617    | 0.27803    |  12.1 | 42.31
Neigh   | 1.2375e-05 | 0.00092016 | 0.0069529  |   0.0 |  0.23
Comm    | 5.7042e-05 | 0.0090354  | 0.070131   |  24.3 |  2.30
Output  | 0.0033876  | 0.0035292  | 0.0039321  |   0.4 |  0.90
Modify  | 0.09845    | 0.20902    | 0.24943    |  13.9 | 53.22
Other   |            | 0.00405    |            |       |  1.03

Nlocal:         597.25 ave        4631 max           0 min
Histogram: 7 0 0 0 0 0 0 0 0 1
Nghost:         110.25 ave         882 max           0 min
Histogram: 7 0 0 0 0 0 0 0 0 1
Neighs:        30815.5 ave      241578 max           0 min
Histogram: 7 0 0 0 0 0 0 0 0 1
FullNghs:      61633.5 ave      483176 max           0 min
Histogram: 7 0 0 0 0 0 0 0 0 1

Total # of neighbors = 493068
Ave neighs/atom = 103.19548
Neighbor list builds = 1
Dangerous builds = 0
0 atoms in group attached
4631 atoms in group initial
147 atoms in group added
dynamic group attached defined
Setting up Verlet run ...
  Unit style    : metal
  Current step  : 700
  Time step     : 0.002
Per MPI rank memory allocation (min/avg/max) = 4.826 | 5.322 | 8.568 Mbytes
   Step          Temp          PotEng         KinEng         TotEng         Press     
       700   372.28879     -15952.288      229.87929     -15722.408      62.061631    
       750   374.12471     -15953.195      231.01292     -15722.182     -60.902804    
Loop time of 0.441932 on 8 procs for 50 steps with 4778 atoms

Performance: 19.551 ns/day, 1.228 hours/ns, 113.140 timesteps/s, 540.581 katom-step/s
86.4% CPU use with 8 MPI tasks x no OpenMP threads

MPI task timing breakdown:
Section |  min time  |  avg time  |  max time  |%varavg| %total
---------------------------------------------------------------
Pair    | 0.15044    | 0.18227    | 0.29848    |  11.5 | 41.24
Neigh   | 1.1916e-05 | 0.00098177 | 0.0075918  |   0.0 |  0.22
Comm    | 7.2831e-05 | 0.013124   | 0.093643   |  26.7 |  2.97
Output  | 0.0083243  | 0.0083414  | 0.0084113  |   0.0 |  1.89
Modify  | 0.11349    | 0.23321    | 0.27812    |  14.2 | 52.77
Other   |            | 0.004005   |            |       |  0.91

Nlocal:         597.25 ave        4631 max           0 min
Histogram: 7 0 0 0 0 0 0 0 0 1
Nghost:         110.25 ave         882 max           0 min
Histogram: 7 0 0 0 0 0 0 0 0 1
Neighs:        30720.2 ave      241596 max           0 min
Histogram: 7 0 0 0 0 0 0 0 0 1
FullNghs:      61437.8 ave      483170 max           0 min
Histogram: 7 0 0 0 0 0 0 0 0 1

Total # of neighbors = 491502
Ave neighs/atom = 102.86773
Neighbor list builds = 1
Dangerous builds = 0
0 atoms in group attached
4631 atoms in group initial
147 atoms in group added
dynamic group attached defined
Setting up Verlet run ...
  Unit style    : metal
  Current step  : 750
  Time step     : 0.002
Per MPI rank memory allocation (min/avg/max) = 4.826 | 5.322 | 8.568 Mbytes
   Step          Temp          PotEng         KinEng         TotEng         Press     
       750   374.12471     -15953.195      231.01292     -15722.182     -60.902804    
       800   383.81256     -15956.018      236.99494     -15719.024     -35.099732    
Loop time of 0.408068 on 8 procs for 50 steps with 4778 atoms

Performance: 21.173 ns/day, 1.134 hours/ns, 122.528 timesteps/s, 585.441 katom-step/s
85.5% CPU use with 8 MPI tasks x no OpenMP threads

MPI task timing breakdown:
Section |  min time  |  avg time  |  max time  |%varavg| %total
---------------------------------------------------------------
Pair    | 0.15026    | 0.17857    | 0.28098    |  10.4 | 43.76
Neigh   | 1.1167e-05 | 0.00076367 | 0.0058595  |   0.0 |  0.19
Comm    | 5.9909e-05 | 0.010022   | 0.074519   |  24.4 |  2.46
Output  | 0.0042985  | 0.0046889  | 0.0048042  |   0.2 |  1.15
Modify  | 0.10388    | 0.20711    | 0.24866    |  13.0 | 50.75
Other   |            | 0.006911   |            |       |  1.69

Nlocal:         597.25 ave        4631 max           0 min
Histogram: 7 0 0 0 0 0 0 0 0 1
Nghost:         110.25 ave         882 max           0 min
Histogram: 7 0 0 0 0 0 0 0 0 1
Neighs:        30641.2 ave      241504 max           0 min
Histogram: 7 0 0 0 0 0 0 0 0 1
FullNghs:      61279.8 ave      482986 max           0 min
Histogram: 7 0 0 0 0 0 0 0 0 1

Total # of neighbors = 490238
Ave neighs/atom = 102.60318
Neighbor list builds = 1
Dangerous builds = 0
0 atoms in group attached
4631 atoms in group initial
147 atoms in group added
dynamic group attached defined
Setting up Verlet run ...
  Unit style    : metal
  Current step  : 800
  Time step     : 0.002
Per MPI rank memory allocation (min/avg/max) = 4.826 | 5.322 | 8.568 Mbytes
   Step          Temp          PotEng         KinEng         TotEng         Press     
       800   383.81256     -15956.018      236.99494     -15719.024     -35.099732    
       850   406.10369     -15970.51       250.75916     -15719.751      6.8563127    
Loop time of 0.44483 on 8 procs for 50 steps with 4778 atoms

Performance: 19.423 ns/day, 1.236 hours/ns, 112.402 timesteps/s, 537.059 katom-step/s
85.9% CPU use with 8 MPI tasks x no OpenMP threads

MPI task timing breakdown:
Section |  min time  |  avg time  |  max time  |%varavg| %total
---------------------------------------------------------------
Pair    | 0.17396    | 0.20201    | 0.30859    |   9.8 | 45.41
Neigh   | 1.2083e-05 | 0.00074741 | 0.0057117  |   0.0 |  0.17
Comm    | 7.7705e-05 | 0.013011   | 0.091709   |  26.3 |  2.92
Output  | 0.0041607  | 0.0041712  | 0.0042131  |   0.0 |  0.94
Modify  | 0.1032     | 0.21294    | 0.25461    |  13.5 | 47.87
Other   |            | 0.01196    |            |       |  2.69

Nlocal:         597.25 ave        4631 max           0 min
Histogram: 7 0 0 0 0 0 0 0 0 1
Nghost:         110.25 ave         882 max           0 min
Histogram: 7 0 0 0 0 0 0 0 0 1
Neighs:        30677.2 ave      241192 max           0 min
Histogram: 7 0 0 0 0 0 0 0 0 1
FullNghs:      61354.5 ave      482384 max           0 min
Histogram: 7 0 0 0 0 0 0 0 0 1

Total # of neighbors = 490836
Ave neighs/atom = 102.72834
Neighbor list builds = 1
Dangerous builds = 0
0 atoms in group attached
4631 atoms in group initial
147 atoms in group added
dynamic group attached defined
Setting up Verlet run ...
  Unit style    : metal
  Current step  : 850
  Time step     : 0.002
Per MPI rank memory allocation (min/avg/max) = 4.826 | 5.322 | 8.568 Mbytes
   Step          Temp          PotEng         KinEng         TotEng         Press     
       850   406.10369     -15970.51       250.75916     -15719.751      6.8563127    
       900   371.22575     -15948.352      229.22289     -15719.129      5.497961     
Loop time of 0.395533 on 8 procs for 50 steps with 4778 atoms

Performance: 21.844 ns/day, 1.099 hours/ns, 126.412 timesteps/s, 603.995 katom-step/s
84.9% CPU use with 8 MPI tasks x no OpenMP threads

MPI task timing breakdown:
Section |  min time  |  avg time  |  max time  |%varavg| %total
---------------------------------------------------------------
Pair    | 0.14283    | 0.16896    | 0.27548    |  10.8 | 42.72
Neigh   | 1.2e-05    | 0.00092433 | 0.0070721  |   0.0 |  0.23
Comm    | 5.9793e-05 | 0.011576   | 0.085386   |  26.0 |  2.93
Output  | 0.0033588  | 0.0033692  | 0.003413   |   0.0 |  0.85
Modify  | 0.1002     | 0.20713    | 0.24669    |  13.5 | 52.37
Other   |            | 0.003575   |            |       |  0.90

Nlocal:         597.25 ave        4631 max           0 min
Histogram: 7 0 0 0 0 0 0 0 0 1
Nghost:         110.25 ave         882 max           0 min
Histogram: 7 0 0 0 0 0 0 0 0 1
Neighs:        30733.1 ave      240847 max           0 min
Histogram: 7 0 0 0 0 0 0 0 0 1
FullNghs:      61466.2 ave      481694 max           0 min
Histogram: 7 0 0 0 0 0 0 0 0 1

Total # of neighbors = 491730
Ave neighs/atom = 102.91545
Neighbor list builds = 1
Dangerous builds = 0
0 atoms in group attached
4631 atoms in group initial
147 atoms in group added
dynamic group attached defined
Setting up Verlet run ...
  Unit style    : metal
  Current step  : 900
  Time step     : 0.002
Per MPI rank memory allocation (min/avg/max) = 4.826 | 5.322 | 8.568 Mbytes
   Step          Temp          PotEng         KinEng         TotEng         Press     
       900   371.22575     -15948.352      229.22289     -15719.129      5.497961     
       950   360.16007     -15943.345      222.3901      -15720.955     -28.984363    
Loop time of 0.457657 on 8 procs for 50 steps with 4778 atoms

Performance: 18.879 ns/day, 1.271 hours/ns, 109.252 timesteps/s, 522.007 katom-step/s
86.3% CPU use with 8 MPI tasks x no OpenMP threads

MPI task timing breakdown:
Section |  min time  |  avg time  |  max time  |%varavg| %total
---------------------------------------------------------------
Pair    | 0.18125    | 0.20636    | 0.30434    |   9.1 | 45.09
Neigh   | 2.4333e-05 | 0.0018076  | 0.013808   |  10.7 |  0.39
Comm    | 6.7793e-05 | 0.011774   | 0.0857     |  25.9 |  2.57
Output  | 0.013107   | 0.013274   | 0.013786   |   0.2 |  2.90
Modify  | 0.11092    | 0.21721    | 0.25528    |  12.9 | 47.46
Other   |            | 0.007227   |            |       |  1.58

Nlocal:         597.25 ave        4631 max           0 min
Histogram: 7 0 0 0 0 0 0 0 0 1
Nghost:         110.25 ave         882 max           0 min
Histogram: 7 0 0 0 0 0 0 0 0 1
Neighs:        30659.4 ave      241289 max           0 min
Histogram: 7 0 0 0 0 0 0 0 0 1
FullNghs:      61318.8 ave      482578 max           0 min
Histogram: 7 0 0 0 0 0 0 0 0 1

Total # of neighbors = 490550
Ave neighs/atom = 102.66848
Neighbor list builds = 2
Dangerous builds = 0
0 atoms in group attached
4631 atoms in group initial
147 atoms in group added
dynamic group attached defined
Setting up Verlet run ...
  Unit style    : metal
  Current step  : 950
  Time step     : 0.002
Per MPI rank memory allocation (min/avg/max) = 4.826 | 5.322 | 8.568 Mbytes
   Step          Temp          PotEng         KinEng         TotEng         Press     
       950   360.16007     -15943.345      222.3901      -15720.955     -28.984363    
      1000   358.83819     -15942.577      221.57387     -15721.003     -17.682037    
Loop time of 0.417651 on 8 procs for 50 steps with 4778 atoms

Performance: 20.687 ns/day, 1.160 hours/ns, 119.717 timesteps/s, 572.009 katom-step/s
86.2% CPU use with 8 MPI tasks x no OpenMP threads

MPI task timing breakdown:
Section |  min time  |  avg time  |  max time  |%varavg| %total
---------------------------------------------------------------
Pair    | 0.15073    | 0.17773    | 0.28552    |  10.6 | 42.55
Neigh   | 1.1458e-05 | 0.0013574  | 0.010539   |   9.4 |  0.32
Comm    | 6.5248e-05 | 0.012281   | 0.090436   |  26.7 |  2.94
Output  | 0.0038941  | 0.00393    | 0.0040365  |   0.1 |  0.94
Modify  | 0.1036     | 0.21224    | 0.25605    |  13.6 | 50.82
Other   |            | 0.01011    |            |       |  2.42

Nlocal:         597.25 ave        4631 max           0 min
Histogram: 7 0 0 0 0 0 0 0 0 1
Nghost:         110.25 ave         882 max           0 min
Histogram: 7 0 0 0 0 0 0 0 0 1
Neighs:        30671.2 ave      241504 max           0 min
Histogram: 7 0 0 0 0 0 0 0 0 1
FullNghs:      61342.5 ave      483008 max           0 min
Histogram: 7 0 0 0 0 0 0 0 0 1

Total # of neighbors = 490740
Ave neighs/atom = 102.70825
Neighbor list builds = 1
Dangerous builds = 0
0 atoms in group attached
4631 atoms in group initial
147 atoms in group added
dynamic group attached defined
Setting up Verlet run ...
  Unit style    : metal
  Current step  : 1000
  Time step     : 0.002
Per MPI rank memory allocation (min/avg/max) = 4.826 | 5.322 | 8.568 Mbytes
   Step          Temp          PotEng         KinEng         TotEng         Press     
      1000   358.83819     -15942.577      221.57387     -15721.003     -17.682037    
      1050   340.39397     -15932.867      210.18501     -15722.682      65.853184    
Loop time of 0.492825 on 8 procs for 50 steps with 4778 atoms

Performance: 17.532 ns/day, 1.369 hours/ns, 101.456 timesteps/s, 484.757 katom-step/s
85.1% CPU use with 8 MPI tasks x no OpenMP threads

MPI task timing breakdown:
Section |  min time  |  avg time  |  max time  |%varavg| %total
---------------------------------------------------------------
Pair    | 0.1732     | 0.20323    | 0.30509    |   9.9 | 41.24
Neigh   | 2.4626e-05 | 0.0017538  | 0.01353    |  10.6 |  0.36
Comm    | 8.6331e-05 | 0.010487   | 0.078909   |  25.3 |  2.13
Output  | 0.0093564  | 0.0096197  | 0.0098939  |   0.2 |  1.95
Modify  | 0.15393    | 0.26157    | 0.30481    |  12.2 | 53.08
Other   |            | 0.006168   |            |       |  1.25

Nlocal:         597.25 ave        4631 max           0 min
Histogram: 7 0 0 0 0 0 0 0 0 1
Nghost:         110.25 ave         882 max           0 min
Histogram: 7 0 0 0 0 0 0 0 0 1
Neighs:        30780.4 ave      241585 max           0 min
Histogram: 7 0 0 0 0 0 0 0 0 1
FullNghs:        61574 ave      483036 max           0 min
Histogram: 7 0 0 0 0 0 0 0 0 1

Total # of neighbors = 492592
Ave neighs/atom = 103.09586
Neighbor list builds = 2
Dangerous builds = 0
0 atoms in group attached
4631 atoms in group initial
147 atoms in group added
dynamic group attached defined
Setting up Verlet run ...
  Unit style    : metal
  Current step  : 1050
  Time step     : 0.002
Per MPI rank memory allocation (min/avg/max) = 4.826 | 5.322 | 8.568 Mbytes
   Step          Temp          PotEng         KinEng         TotEng         Press     
      1050   340.39397     -15932.867      210.18501     -15722.682      65.853184    
      1100   385.46761     -15964.855      238.01689     -15726.838      22.140532    
Loop time of 0.42646 on 8 procs for 50 steps with 4778 atoms

Performance: 20.260 ns/day, 1.185 hours/ns, 117.244 timesteps/s, 560.193 katom-step/s
85.7% CPU use with 8 MPI tasks x no OpenMP threads

MPI task timing breakdown:
Section |  min time  |  avg time  |  max time  |%varavg| %total
---------------------------------------------------------------
Pair    | 0.17636    | 0.20382    | 0.30135    |   9.1 | 47.79
Neigh   | 1.1875e-05 | 0.00064579 | 0.0048379  |   0.0 |  0.15
Comm    | 6.7373e-05 | 0.0099628  | 0.074184   |  24.4 |  2.34
Output  | 0.004275   | 0.0042849  | 0.0043218  |   0.0 |  1.00
Modify  | 0.10623    | 0.20246    | 0.23953    |  12.3 | 47.47
Other   |            | 0.005287   |            |       |  1.24

Nlocal:         597.25 ave        4631 max           0 min
Histogram: 7 0 0 0 0 0 0 0 0 1
Nghost:         110.25 ave         882 max           0 min
Histogram: 7 0 0 0 0 0 0 0 0 1
Neighs:        30810.4 ave      241585 max           0 min
Histogram: 7 0 0 0 0 0 0 0 0 1
FullNghs:      61627.5 ave      483224 max           0 min
Histogram: 7 0 0 0 0 0 0 0 0 1

Total # of neighbors = 493020
Ave neighs/atom = 103.18543
Neighbor list builds = 1
Dangerous builds = 0
0 atoms in group attached
4631 atoms in group initial
147 atoms in group added
dynamic group attached defined
Setting up Verlet run ...
  Unit style    : metal
  Current step  : 1100
  Time step     : 0.002
Per MPI rank memory allocation (min/avg/max) = 4.826 | 5.322 | 8.568 Mbytes
   Step          Temp          PotEng         KinEng         TotEng         Press     
      1100   385.46761     -15964.855      238.01689     -15726.838      22.140532    
      1150   350.03382     -15939.799      216.13739     -15723.662     -70.381134    
Loop time of 0.423207 on 8 procs for 50 steps with 4778 atoms

Performance: 20.416 ns/day, 1.176 hours/ns, 118.145 timesteps/s, 564.499 katom-step/s
86.7% CPU use with 8 MPI tasks x no OpenMP threads

MPI task timing breakdown:
Section |  min time  |  avg time  |  max time  |%varavg| %total
---------------------------------------------------------------
Pair    | 0.15823    | 0.19219    | 0.30607    |  11.0 | 45.41
Neigh   | 1.1792e-05 | 0.00093717 | 0.0071648  |   0.0 |  0.22
Comm    | 6.1331e-05 | 0.013662   | 0.096353   |  27.0 |  3.23
Output  | 0.0033895  | 0.0034058  | 0.0034772  |   0.0 |  0.80
Modify  | 0.085502   | 0.20526    | 0.25268    |  15.2 | 48.50
Other   |            | 0.007755   |            |       |  1.83

Nlocal:         597.25 ave        4631 max           0 min
Histogram: 7 0 0 0 0 0 0 0 0 1
Nghost:         110.25 ave         882 max           0 min
Histogram: 7 0 0 0 0 0 0 0 0 1
Neighs:          30648 ave      241138 max           0 min
Histogram: 7 0 0 0 0 0 0 0 0 1
FullNghs:        61296 ave      482276 max           0 min
Histogram: 7 0 0 0 0 0 0 0 0 1

Total # of neighbors = 490368
Ave neighs/atom = 102.63039
Neighbor list builds = 1
Dangerous builds = 0
0 atoms in group attached
4631 atoms in group initial
147 atoms in group added
dynamic group attached defined
Setting up Verlet run ...
  Unit style    : metal
  Current step  : 1150
  Time step     : 0.002
Per MPI rank memory allocation (min/avg/max) = 4.826 | 5.322 | 8.568 Mbytes
   Step          Temp          PotEng         KinEng         TotEng         Press     
      1150   350.03382     -15939.799      216.13739     -15723.662     -70.381134    
      1200   380.01084     -15955.309      234.64746     -15720.661      1.46821      
Loop time of 0.435294 on 8 procs for 50 steps with 4778 atoms

Performance: 19.849 ns/day, 1.209 hours/ns, 114.865 timesteps/s, 548.824 katom-step/s
83.0% CPU use with 8 MPI tasks x no OpenMP threads

MPI task timing breakdown:
Section |  min time  |  avg time  |  max time  |%varavg| %total
---------------------------------------------------------------
Pair    | 0.17244    | 0.19923    | 0.29826    |   9.3 | 45.77
Neigh   | 1.2708e-05 | 0.0010227  | 0.0079155  |   8.1 |  0.23
Comm    | 7.0958e-05 | 0.012745   | 0.088854   |  25.7 |  2.93
Output  | 0.0031795  | 0.0032487  | 0.0035615  |   0.2 |  0.75
Modify  | 0.11032    | 0.21605    | 0.25638    |  13.1 | 49.63
Other   |            | 0.002991   |            |       |  0.69

Nlocal:         597.25 ave        4631 max           0 min
Histogram: 7 0 0 0 0 0 0 0 0 1
Nghost:         110.25 ave         882 max           0 min
Histogram: 7 0 0 0 0 0 0 0 0 1
Neighs:        30682.4 ave      241353 max           0 min
Histogram: 7 0 0 0 0 0 0 0 0 1
FullNghs:      61364.8 ave      482706 max           0 min
Histogram: 7 0 0 0 0 0 0 0 0 1

Total # of neighbors = 490918
Ave neighs/atom = 102.7455
Neighbor list builds = 1
Dangerous builds = 0
0 atoms in group attached
4631 atoms in group initial
147 atoms in group added
dynamic group attached defined
Setting up Verlet run ...
  Unit style    : metal
  Current step  : 1200
  Time step     : 0.002
Per MPI rank memory allocation (min/avg/max) = 4.826 | 5.322 | 8.568 Mbytes
   Step          Temp          PotEng         KinEng         TotEng         Press     
      1200   380.01084     -15955.309      234.64746     -15720.661      1.46821      
      1250   383.2199      -15952.443      236.62898     -15715.814      41.157533    
Loop time of 0.383449 on 8 procs for 50 steps with 4778 atoms

Performance: 22.532 ns/day, 1.065 hours/ns, 130.396 timesteps/s, 623.030 katom-step/s
85.1% CPU use with 8 MPI tasks x no OpenMP threads

MPI task timing breakdown:
Section |  min time  |  avg time  |  max time  |%varavg| %total
---------------------------------------------------------------
Pair    | 0.12471    | 0.15322    | 0.25741    |  11.4 | 39.96
Neigh   | 1.1416e-05 | 0.0013152  | 0.0099071  |   9.0 |  0.34
Comm    | 5.7464e-05 | 0.011076   | 0.081396   |  25.3 |  2.89
Output  | 0.0032026  | 0.0032127  | 0.0032528  |   0.0 |  0.84
Modify  | 0.1025     | 0.21084    | 0.251      |  13.6 | 54.98
Other   |            | 0.003791   |            |       |  0.99

Nlocal:         597.25 ave        4631 max           0 min
Histogram: 7 0 0 0 0 0 0 0 0 1
Nghost:         110.25 ave         882 max           0 min
Histogram: 7 0 0 0 0 0 0 0 0 1
Neighs:        30767.8 ave      241556 max           0 min
Histogram: 7 0 0 0 0 0 0 0 0 1
FullNghs:      61521.2 ave      483118 max           0 min
Histogram: 7 0 0 0 0 0 0 0 0 1

Total # of neighbors = 492170
Ave neighs/atom = 103.00753
Neighbor list builds = 1
Dangerous builds = 0
0 atoms in group attached
4631 atoms in group initial
147 atoms in group added
dynamic group attached defined
Setting up Verlet run ...
  Unit style    : metal
  Current step  : 1250
  Time step     : 0.002
Per MPI rank memory allocation (min/avg/max) = 4.826 | 5.322 | 8.568 Mbytes
   Step          Temp          PotEng         KinEng         TotEng         Press     
      1250   383.2199      -15952.443      236.62898     -15715.814      41.157533    
      1300   384.58846     -15955.963      237.47403     -15718.489      8.3453503    
Loop time of 0.419925 on 8 procs for 50 steps with 4778 atoms

Performance: 20.575 ns/day, 1.166 hours/ns, 119.069 timesteps/s, 568.911 katom-step/s
85.8% CPU use with 8 MPI tasks x no OpenMP threads

MPI task timing breakdown:
Section |  min time  |  avg time  |  max time  |%varavg| %total
---------------------------------------------------------------
Pair    | 0.14293    | 0.17026    | 0.26937    |  10.4 | 40.54
Neigh   | 1.1916e-05 | 0.00070039 | 0.0052949  |   0.0 |  0.17
Comm    | 7.6294e-05 | 0.016649   | 0.086791   |  21.1 |  3.96
Output  | 0.0030755  | 0.0030866  | 0.0031398  |   0.0 |  0.74
Modify  | 0.11819    | 0.22625    | 0.26924    |  13.1 | 53.88
Other   |            | 0.002978   |            |       |  0.71

Nlocal:         597.25 ave        4631 max           0 min
Histogram: 7 0 0 0 0 0 0 0 0 1
Nghost:         110.25 ave         882 max           0 min
Histogram: 7 0 0 0 0 0 0 0 0 1
Neighs:        30763.2 ave      241520 max           0 min
Histogram: 7 0 0 0 0 0 0 0 0 1
FullNghs:        61525 ave      483028 max           0 min
Histogram: 7 0 0 0 0 0 0 0 0 1

Total # of neighbors = 492200
Ave neighs/atom = 103.01381
Neighbor list builds = 1
Dangerous builds = 0
0 atoms in group attached
4631 atoms in group initial
147 atoms in group added
dynamic group attached defined
Setting up Verlet run ...
  Unit style    : metal
  Current step  : 1300
  Time step     : 0.002
Per MPI rank memory allocation (min/avg/max) = 4.826 | 5.322 | 8.568 Mbytes
   Step          Temp          PotEng         KinEng         TotEng         Press     
      1300   384.58846     -15955.963      237.47403     -15718.489      8.3453503    
      1350   362.40017     -15942.046      223.77331     -15718.273     -29.259983    
Loop time of 0.441312 on 8 procs for 50 steps with 4778 atoms

Performance: 19.578 ns/day, 1.226 hours/ns, 113.299 timesteps/s, 541.340 katom-step/s
85.5% CPU use with 8 MPI tasks x no OpenMP threads

MPI task timing breakdown:
Section |  min time  |  avg time  |  max time  |%varavg| %total
---------------------------------------------------------------
Pair    | 0.15355    | 0.18543    | 0.29958    |  11.3 | 42.02
Neigh   | 1.2e-05    | 0.0010924  | 0.0084039  |   8.4 |  0.25
Comm    | 6.5369e-05 | 0.011484   | 0.085662   |  26.2 |  2.60
Output  | 0.0030835  | 0.0031008  | 0.0031728  |   0.0 |  0.70
Modify  | 0.1176     | 0.23313    | 0.27539    |  13.7 | 52.83
Other   |            | 0.007073   |            |       |  1.60

Nlocal:         597.25 ave        4631 max           0 min
Histogram: 7 0 0 0 0 0 0 0 0 1
Nghost:         110.25 ave         882 max           0 min
Histogram: 7 0 0 0 0 0 0 0 0 1
Neighs:          30654 ave      241426 max           0 min
Histogram: 7 0 0 0 0 0 0 0 0 1
FullNghs:      61301.8 ave      482802 max           0 min
Histogram: 7 0 0 0 0 0 0 0 0 1

Total # of neighbors = 490414
Ave neighs/atom = 102.64002
Neighbor list builds = 1
Dangerous builds = 0
0 atoms in group attached
4631 atoms in group initial
147 atoms in group added
dynamic group attached defined
Setting up Verlet run ...
  Unit style    : metal
  Current step  : 1350
  Time step     : 0.002
Per MPI rank memory allocation (min/avg/max) = 4.826 | 5.322 | 8.568 Mbytes
   Step          Temp          PotEng         KinEng         TotEng         Press     
      1350   362.40017     -15942.046      223.77331     -15718.273     -29.259983    
      1400   376.76186     -15957.132      232.6413      -15724.491      29.188267    
Loop time of 0.479611 on 8 procs for 50 steps with 4778 atoms

Performance: 18.015 ns/day, 1.332 hours/ns, 104.251 timesteps/s, 498.112 katom-step/s
79.2% CPU use with 8 MPI tasks x no OpenMP threads

MPI task timing breakdown:
Section |  min time  |  avg time  |  max time  |%varavg| %total
---------------------------------------------------------------
Pair    | 0.17706    | 0.20884    | 0.30042    |   9.0 | 43.54
Neigh   | 1.325e-05  | 0.0015767  | 0.012291   |  10.2 |  0.33
Comm    | 0.00010804 | 0.010224   | 0.069963   |  22.6 |  2.13
Output  | 0.0062418  | 0.0071807  | 0.0074564  |   0.4 |  1.50
Modify  | 0.13963    | 0.24125    | 0.28307    |  11.8 | 50.30
Other   |            | 0.01054    |            |       |  2.20

Nlocal:         597.25 ave        4631 max           0 min
Histogram: 7 0 0 0 0 0 0 0 0 1
Nghost:         110.25 ave         882 max           0 min
Histogram: 7 0 0 0 0 0 0 0 0 1
Neighs:        30727.2 ave      241832 max           0 min
Histogram: 7 0 0 0 0 0 0 0 0 1
FullNghs:      61454.5 ave      483664 max           0 min
Histogram: 7 0 0 0 0 0 0 0 0 1

Total # of neighbors = 491636
Ave neighs/atom = 102.89577
Neighbor list builds = 1
Dangerous builds = 0
0 atoms in group attached
4631 atoms in group initial
147 atoms in group added
dynamic group attached defined
Setting up Verlet run ...
  Unit style    : metal
  Current step  : 1400
  Time step     : 0.002
Per MPI rank memory allocation (min/avg/max) = 4.826 | 5.322 | 8.568 Mbytes
   Step          Temp          PotEng         KinEng         TotEng         Press     
      1400   376.76186     -15957.132      232.6413      -15724.491      29.188267    
      1450   391.20606     -15968.816      241.56024     -15727.255      63.126265    
Loop time of 0.485806 on 8 procs for 50 steps with 4778 atoms

Performance: 17.785 ns/day, 1.349 hours/ns, 102.922 timesteps/s, 491.760 katom-step/s
79.9% CPU use with 8 MPI tasks x no OpenMP threads

MPI task timing breakdown:
Section |  min time  |  avg time  |  max time  |%varavg| %total
---------------------------------------------------------------
Pair    | 0.18085    | 0.21484    | 0.33604    |  11.3 | 44.22
Neigh   | 1.2292e-05 | 0.001058   | 0.0082319  |   8.3 |  0.22
Comm    | 8.966e-05  | 0.014202   | 0.096899   |  26.6 |  2.92
Output  | 0.0036281  | 0.0037133  | 0.0042624  |   0.3 |  0.76
Modify  | 0.11255    | 0.24278    | 0.29399    |  15.1 | 49.97
Other   |            | 0.00921    |            |       |  1.90

Nlocal:         597.25 ave        4631 max           0 min
Histogram: 7 0 0 0 0 0 0 0 0 1
Nghost:         110.25 ave         882 max           0 min
Histogram: 7 0 0 0 0 0 0 0 0 1
Neighs:        30807.1 ave      241799 max           0 min
Histogram: 7 0 0 0 0 0 0 0 0 1
FullNghs:      61614.2 ave      483598 max           0 min
Histogram: 7 0 0 0 0 0 0 0 0 1

Total # of neighbors = 492914
Ave neighs/atom = 103.16325
Neighbor list builds = 1
Dangerous builds = 0
0 atoms in group attached
4631 atoms in group initial
147 atoms in group added
dynamic group attached defined
Setting up Verlet run ...
  Unit style    : metal
  Current step  : 1450
  Time step     : 0.002
Per MPI rank memory allocation (min/avg/max) = 4.826 | 5.322 | 8.568 Mbytes
   Step          Temp          PotEng         KinEng         TotEng         Press     
      1450   391.20606     -15968.816      241.56024     -15727.255      63.126265    
      1500   369.0606      -15952.415      227.88595     -15724.529      28.139003    
Loop time of 0.843821 on 8 procs for 50 steps with 4778 atoms

Performance: 10.239 ns/day, 2.344 hours/ns, 59.254 timesteps/s, 283.117 katom-step/s
72.2% CPU use with 8 MPI tasks x no OpenMP threads

MPI task timing breakdown:
Section |  min time  |  avg time  |  max time  |%varavg| %total
---------------------------------------------------------------
Pair    | 0.21382    | 0.25332    | 0.36912    |   9.8 | 30.02
Neigh   | 1.1667e-05 | 0.0010671  | 0.008235   |   8.3 |  0.13
Comm    | 0.000106   | 0.019099   | 0.12321    |  29.3 |  2.26
Output  | 0.0094812  | 0.011335   | 0.011711   |   0.7 |  1.34
Modify  | 0.3474     | 0.498      | 0.56182    |  11.6 | 59.02
Other   |            | 0.061      |            |       |  7.23

Nlocal:         597.25 ave        4631 max           0 min
Histogram: 7 0 0 0 0 0 0 0 0 1
Nghost:         110.25 ave         882 max           0 min
Histogram: 7 0 0 0 0 0 0 0 0 1
Neighs:        30790.2 ave      241856 max           0 min
Histogram: 7 0 0 0 0 0 0 0 0 1
FullNghs:        61576 ave      483676 max           0 min
Histogram: 7 0 0 0 0 0 0 0 0 1

Total # of neighbors = 492608
Ave neighs/atom = 103.0992
Neighbor list builds = 1
Dangerous builds = 0
0 atoms in group attached
4631 atoms in group initial
147 atoms in group added
dynamic group attached defined
Setting up Verlet run ...
  Unit style    : metal
  Current step  : 1500
  Time step     : 0.002
Per MPI rank memory allocation (min/avg/max) = 4.826 | 5.322 | 8.568 Mbytes
   Step          Temp          PotEng         KinEng         TotEng         Press     
      1500   369.0606      -15952.415      227.88595     -15724.529      28.139003    
      1550   366.40458     -15949.906      226.24593     -15723.661      2.8472006    
Loop time of 0.483466 on 8 procs for 50 steps with 4778 atoms

Performance: 17.871 ns/day, 1.343 hours/ns, 103.420 timesteps/s, 494.140 katom-step/s
82.6% CPU use with 8 MPI tasks x no OpenMP threads

MPI task timing breakdown:
Section |  min time  |  avg time  |  max time  |%varavg| %total
---------------------------------------------------------------
Pair    | 0.18884    | 0.21986    | 0.3157     |   8.9 | 45.48
Neigh   | 1.3792e-05 | 0.001307   | 0.010171   |   9.3 |  0.27
Comm    | 8.2915e-05 | 0.011843   | 0.082327   |  24.7 |  2.45
Output  | 0.0048935  | 0.0049059  | 0.0049496  |   0.0 |  1.01
Modify  | 0.1355     | 0.24155    | 0.2867     |  12.4 | 49.96
Other   |            | 0.003999   |            |       |  0.83

Nlocal:         597.25 ave        4631 max           0 min
Histogram: 7 0 0 0 0 0 0 0 0 1
Nghost:         110.25 ave         882 max           0 min
Histogram: 7 0 0 0 0 0 0 0 0 1
Neighs:        30696.5 ave      241706 max           0 min
Histogram: 7 0 0 0 0 0 0 0 0 1
FullNghs:        61393 ave      483412 max           0 min
Histogram: 7 0 0 0 0 0 0 0 0 1

Total # of neighbors = 491144
Ave neighs/atom = 102.7928
Neighbor list builds = 1
Dangerous builds = 0
0 atoms in group attached
4631 atoms in group initial
147 atoms in group added
dynamic group attached defined
Setting up Verlet run ...
  Unit style    : metal
  Current step  : 1550
  Time step     : 0.002
Per MPI rank memory allocation (min/avg/max) = 4.826 | 5.322 | 8.568 Mbytes
   Step          Temp          PotEng         KinEng         TotEng         Press     
      1550   366.40458     -15949.906      226.24593     -15723.661      2.8472006    
      1600   368.58495     -15949.816      227.59226     -15722.224     -1.1293052    
Loop time of 0.500891 on 8 procs for 50 steps with 4778 atoms

Performance: 17.249 ns/day, 1.391 hours/ns, 99.822 timesteps/s, 476.950 katom-step/s
81.8% CPU use with 8 MPI tasks x no OpenMP threads

MPI task timing breakdown:
Section |  min time  |  avg time  |  max time  |%varavg| %total
---------------------------------------------------------------
Pair    | 0.15403    | 0.18824    | 0.31985    |  12.6 | 37.58
Neigh   | 1.3292e-05 | 0.0012365  | 0.0095507  |   8.9 |  0.25
Comm    | 8.4828e-05 | 0.014688   | 0.10935    |  29.6 |  2.93
Output  | 0.0078334  | 0.0082905  | 0.0088073  |   0.5 |  1.66
Modify  | 0.13952    | 0.27484    | 0.32542    |  14.8 | 54.87
Other   |            | 0.01359    |            |       |  2.71

Nlocal:         597.25 ave        4631 max           0 min
Histogram: 7 0 0 0 0 0 0 0 0 1
Nghost:         110.25 ave         882 max           0 min
Histogram: 7 0 0 0 0 0 0 0 0 1
Neighs:        30707.6 ave      241675 max           0 min
Histogram: 7 0 0 0 0 0 0 0 0 1
FullNghs:      61422.8 ave      483410 max           0 min
Histogram: 7 0 0 0 0 0 0 0 0 1

Total # of neighbors = 491382
Ave neighs/atom = 102.84261
Neighbor list builds = 1
Dangerous builds = 0
0 atoms in group attached
4631 atoms in group initial
147 atoms in group added
dynamic group attached defined
Setting up Verlet run ...
  Unit style    : metal
  Current step  : 1600
  Time step     : 0.002
Per MPI rank memory allocation (min/avg/max) = 4.826 | 5.322 | 8.568 Mbytes
   Step          Temp          PotEng         KinEng         TotEng         Press     
      1600   368.58495     -15949.816      227.59226     -15722.224     -1.1293052    
      1650   388.33339     -15964.745      239.78643     -15724.959      61.80236     
Loop time of 0.442221 on 8 procs for 50 steps with 4778 atoms

Performance: 19.538 ns/day, 1.228 hours/ns, 113.066 timesteps/s, 540.228 katom-step/s
79.6% CPU use with 8 MPI tasks x no OpenMP threads

MPI task timing breakdown:
Section |  min time  |  avg time  |  max time  |%varavg| %total
---------------------------------------------------------------
Pair    | 0.16135    | 0.19726    | 0.32993    |  12.7 | 44.61
Neigh   | 1.3375e-05 | 0.001484   | 0.011607   |   9.9 |  0.34
Comm    | 9.9793e-05 | 0.014071   | 0.10454    |  28.9 |  3.18
Output  | 0.012186   | 0.012439   | 0.012521   |   0.1 |  2.81
Modify  | 0.077295   | 0.2129     | 0.2624     |  16.9 | 48.14
Other   |            | 0.004074   |            |       |  0.92

Nlocal:         597.25 ave        4631 max           0 min
Histogram: 7 0 0 0 0 0 0 0 0 1
Nghost:         110.25 ave         882 max           0 min
Histogram: 7 0 0 0 0 0 0 0 0 1
Neighs:        30810.2 ave      241692 max           0 min
Histogram: 7 0 0 0 0 0 0 0 0 1
FullNghs:      61608.8 ave      483434 max           0 min
Histogram: 7 0 0 0 0 0 0 0 0 1

Total # of neighbors = 492870
Ave neighs/atom = 103.15404
Neighbor list builds = 1
Dangerous builds = 0
0 atoms in group attached
4631 atoms in group initial
147 atoms in group added
dynamic group attached defined
Setting up Verlet run ...
  Unit style    : metal
  Current step  : 1650
  Time step     : 0.002
Per MPI rank memory allocation (min/avg/max) = 4.826 | 5.322 | 8.568 Mbytes
   Step          Temp          PotEng         KinEng         TotEng         Press     
      1650   388.33339     -15964.745      239.78643     -15724.959      61.80236     
      1700   370.71104     -15954.382      228.90506     -15725.477      5.5103645    
Loop time of 1.34911 on 8 procs for 50 steps with 4778 atoms

Performance: 6.404 ns/day, 3.748 hours/ns, 37.061 timesteps/s, 177.080 katom-step/s
55.4% CPU use with 8 MPI tasks x no OpenMP threads

MPI task timing breakdown:
Section |  min time  |  avg time  |  max time  |%varavg| %total
---------------------------------------------------------------
Pair    | 0.26143    | 0.32999    | 0.54689    |  17.5 | 24.46
Neigh   | 4.4459e-05 | 0.0023666  | 0.018329   |  12.4 |  0.18
Comm    | 0.00012496 | 0.035562   | 0.18887    |  34.8 |  2.64
Output  | 0.010228   | 0.010644   | 0.010744   |   0.2 |  0.79
Modify  | 0.5908     | 0.88644    | 0.99668    |  18.1 | 65.71
Other   |            | 0.08411    |            |       |  6.23

Nlocal:         597.25 ave        4631 max           0 min
Histogram: 7 0 0 0 0 0 0 0 0 1
Nghost:         110.25 ave         882 max           0 min
Histogram: 7 0 0 0 0 0 0 0 0 1
Neighs:        30751.4 ave      241725 max           0 min
Histogram: 7 0 0 0 0 0 0 0 0 1
FullNghs:      61502.8 ave      483450 max           0 min
Histogram: 7 0 0 0 0 0 0 0 0 1

Total # of neighbors = 492022
Ave neighs/atom = 102.97656
Neighbor list builds = 2
Dangerous builds = 0
0 atoms in group attached
4631 atoms in group initial
147 atoms in group added
dynamic group attached defined
Setting up Verlet run ...
  Unit style    : metal
  Current step  : 1700
  Time step     : 0.002
Per MPI rank memory allocation (min/avg/max) = 4.826 | 5.322 | 8.568 Mbytes
   Step          Temp          PotEng         KinEng         TotEng         Press     
      1700   370.71104     -15954.382      228.90506     -15725.477      5.5103645    
      1750   347.20253     -15940.096      214.38913     -15725.707     -39.119772    
Loop time of 0.610212 on 8 procs for 50 steps with 4778 atoms

Performance: 14.159 ns/day, 1.695 hours/ns, 81.939 timesteps/s, 391.503 katom-step/s
71.6% CPU use with 8 MPI tasks x no OpenMP threads

MPI task timing breakdown:
Section |  min time  |  avg time  |  max time  |%varavg| %total
---------------------------------------------------------------
Pair    | 0.19516    | 0.23694    | 0.36154    |  11.1 | 38.83
Neigh   | 1.2542e-05 | 0.00099915 | 0.007741   |   0.0 |  0.16
Comm    | 0.00010518 | 0.014306   | 0.099531   |  27.2 |  2.34
Output  | 0.010866   | 0.011423   | 0.01166    |   0.2 |  1.87
Modify  | 0.20199    | 0.33042    | 0.38593    |  13.0 | 54.15
Other   |            | 0.01613    |            |       |  2.64

Nlocal:         597.25 ave        4631 max           0 min
Histogram: 7 0 0 0 0 0 0 0 0 1
Nghost:         110.25 ave         882 max           0 min
Histogram: 7 0 0 0 0 0 0 0 0 1
Neighs:        30644.5 ave      241650 max           0 min
Histogram: 7 0 0 0 0 0 0 0 0 1
FullNghs:        61289 ave      483300 max           0 min
Histogram: 7 0 0 0 0 0 0 0 0 1

Total # of neighbors = 490312
Ave neighs/atom = 102.61867
Neighbor list builds = 1
Dangerous builds = 0
0 atoms in group attached
4631 atoms in group initial
147 atoms in group added
dynamic group attached defined
Setting up Verlet run ...
  Unit style    : metal
  Current step  : 1750
  Time step     : 0.002
Per MPI rank memory allocation (min/avg/max) = 4.826 | 5.322 | 8.568 Mbytes
   Step          Temp          PotEng         KinEng         TotEng         Press     
      1750   347.20253     -15940.096      214.38913     -15725.707     -39.119772    
      1800   404.6673      -15973.531      249.87223     -15723.659      16.090059    
Loop time of 0.884813 on 8 procs for 50 steps with 4778 atoms

Performance: 9.765 ns/day, 2.458 hours/ns, 56.509 timesteps/s, 270.001 katom-step/s
64.6% CPU use with 8 MPI tasks x no OpenMP threads

MPI task timing breakdown:
Section |  min time  |  avg time  |  max time  |%varavg| %total
---------------------------------------------------------------
Pair    | 0.17941    | 0.21588    | 0.34782    |  11.7 | 24.40
Neigh   | 1.2583e-05 | 0.00081702 | 0.0062272  |   0.0 |  0.09
Comm    | 0.00010124 | 0.022702   | 0.12699    |  28.6 |  2.57
Output  | 0.0055385  | 0.0055544  | 0.0056267  |   0.0 |  0.63
Modify  | 0.40742    | 0.58369    | 0.65865    |  12.4 | 65.97
Other   |            | 0.05617    |            |       |  6.35

Nlocal:         597.25 ave        4631 max           0 min
Histogram: 7 0 0 0 0 0 0 0 0 1
Nghost:         110.25 ave         882 max           0 min
Histogram: 7 0 0 0 0 0 0 0 0 1
Neighs:        30744.1 ave      241571 max           0 min
Histogram: 7 0 0 0 0 0 0 0 0 1
FullNghs:      61488.2 ave      483142 max           0 min
Histogram: 7 0 0 0 0 0 0 0 0 1

Total # of neighbors = 491906
Ave neighs/atom = 102.95228
Neighbor list builds = 1
Dangerous builds = 0
0 atoms in group attached
4631 atoms in group initial
147 atoms in group added
dynamic group attached defined
Setting up Verlet run ...
  Unit style    : metal
  Current step  : 1800
  Time step     : 0.002
Per MPI rank memory allocation (min/avg/max) = 4.826 | 5.322 | 8.568 Mbytes
   Step          Temp          PotEng         KinEng         TotEng         Press     
      1800   404.6673      -15973.531      249.87223     -15723.659      16.090059    
      1850   358.03394     -15942.724      221.07726     -15721.647      77.995451    
Loop time of 0.532045 on 8 procs for 50 steps with 4778 atoms

Performance: 16.239 ns/day, 1.478 hours/ns, 93.977 timesteps/s, 449.022 katom-step/s
78.6% CPU use with 8 MPI tasks x no OpenMP threads

MPI task timing breakdown:
Section |  min time  |  avg time  |  max time  |%varavg| %total
---------------------------------------------------------------
Pair    | 0.18531    | 0.22234    | 0.34065    |  10.8 | 41.79
Neigh   | 1.2541e-05 | 0.00092366 | 0.0071553  |   0.0 |  0.17
Comm    | 0.00010984 | 0.014343   | 0.097629   |  26.7 |  2.70
Output  | 0.0069609  | 0.0076301  | 0.0083355  |   0.8 |  1.43
Modify  | 0.15222    | 0.27835    | 0.32737    |  13.8 | 52.32
Other   |            | 0.008457   |            |       |  1.59

Nlocal:         597.25 ave        4631 max           0 min
Histogram: 7 0 0 0 0 0 0 0 0 1
Nghost:         110.25 ave         882 max           0 min
Histogram: 7 0 0 0 0 0 0 0 0 1
Neighs:        30830.2 ave      241516 max           0 min
Histogram: 7 0 0 0 0 0 0 0 0 1
FullNghs:      61660.2 ave      483030 max           0 min
Histogram: 7 0 0 0 0 0 0 0 0 1

Total # of neighbors = 493282
Ave neighs/atom = 103.24027
Neighbor list builds = 1
Dangerous builds = 0
0 atoms in group attached
4631 atoms in group initial
147 atoms in group added
dynamic group attached defined
Setting up Verlet run ...
  Unit style    : metal
  Current step  : 1850
  Time step     : 0.002
Per MPI rank memory allocation (min/avg/max) = 4.826 | 5.322 | 8.568 Mbytes
   Step          Temp          PotEng         KinEng         TotEng         Press     
      1850   358.03394     -15942.724      221.07726     -15721.647      77.995451    
      1900   390.84078     -15962.6        241.33469     -15721.265     -24.019485    
Loop time of 0.502068 on 8 procs for 50 steps with 4778 atoms

Performance: 17.209 ns/day, 1.395 hours/ns, 99.588 timesteps/s, 475.832 katom-step/s
78.3% CPU use with 8 MPI tasks x no OpenMP threads

MPI task timing breakdown:
Section |  min time  |  avg time  |  max time  |%varavg| %total
---------------------------------------------------------------
Pair    | 0.18448    | 0.21745    | 0.32969    |  10.0 | 43.31
Neigh   | 1.2458e-05 | 0.00088073 | 0.006643   |   0.0 |  0.18
Comm    | 9.0662e-05 | 0.013568   | 0.093641   |  26.3 |  2.70
Output  | 0.0058987  | 0.0059214  | 0.0060113  |   0.0 |  1.18
Modify  | 0.13326    | 0.25244    | 0.29778    |  13.7 | 50.28
Other   |            | 0.01181    |            |       |  2.35

Nlocal:         597.25 ave        4631 max           0 min
Histogram: 7 0 0 0 0 0 0 0 0 1
Nghost:         110.25 ave         882 max           0 min
Histogram: 7 0 0 0 0 0 0 0 0 1
Neighs:        30763.6 ave      241607 max           0 min
Histogram: 7 0 0 0 0 0 0 0 0 1
FullNghs:      61527.2 ave      483214 max           0 min
Histogram: 7 0 0 0 0 0 0 0 0 1

Total # of neighbors = 492218
Ave neighs/atom = 103.01758
Neighbor list builds = 1
Dangerous builds = 0
0 atoms in group attached
4631 atoms in group initial
147 atoms in group added
dynamic group attached defined
Setting up Verlet run ...
  Unit style    : metal
  Current step  : 1900
  Time step     : 0.002
Per MPI rank memory allocation (min/avg/max) = 4.826 | 5.322 | 8.568 Mbytes
   Step          Temp          PotEng         KinEng         TotEng         Press     
      1900   390.84078     -15962.6        241.33469     -15721.265     -24.019485    
      1950   380.51636     -15956.044      234.95961     -15721.084     -20.930551    
Loop time of 0.586812 on 8 procs for 50 steps with 4778 atoms

Performance: 14.724 ns/day, 1.630 hours/ns, 85.206 timesteps/s, 407.115 katom-step/s
78.2% CPU use with 8 MPI tasks x no OpenMP threads

MPI task timing breakdown:
Section |  min time  |  avg time  |  max time  |%varavg| %total
---------------------------------------------------------------
Pair    | 0.17925    | 0.21333    | 0.34961    |  12.2 | 36.35
Neigh   | 1.5583e-05 | 0.0010632  | 0.0081357  |   8.2 |  0.18
Comm    | 0.00011616 | 0.015664   | 0.11138    |  29.0 |  2.67
Output  | 0.0060147  | 0.0062001  | 0.0067056  |   0.3 |  1.06
Modify  | 0.20393    | 0.3403     | 0.39061    |  13.1 | 57.99
Other   |            | 0.01025    |            |       |  1.75

Nlocal:         597.25 ave        4631 max           0 min
Histogram: 7 0 0 0 0 0 0 0 0 1
Nghost:         110.25 ave         882 max           0 min
Histogram: 7 0 0 0 0 0 0 0 0 1
Neighs:        30671.2 ave      241540 max           0 min
Histogram: 7 0 0 0 0 0 0 0 0 1
FullNghs:      61350.2 ave      483142 max           0 min
Histogram: 7 0 0 0 0 0 0 0 0 1

Total # of neighbors = 490802
Ave neighs/atom = 102.72122
Neighbor list builds = 1
Dangerous builds = 0
0 atoms in group attached
4631 atoms in group initial
147 atoms in group added
dynamic group attached defined
Setting up Verlet run ...
  Unit style    : metal
  Current step  : 1950
  Time step     : 0.002
Per MPI rank memory allocation (min/avg/max) = 4.826 | 5.322 | 8.568 Mbytes
   Step          Temp          PotEng         KinEng         TotEng         Press     
      1950   380.51636     -15956.044      234.95961     -15721.084     -20.930551    
      2000   371.26182     -15951.587      229.24516     -15722.342      55.202232    
Loop time of 0.906864 on 8 procs for 50 steps with 4778 atoms

Performance: 9.527 ns/day, 2.519 hours/ns, 55.135 timesteps/s, 263.435 katom-step/s
68.0% CPU use with 8 MPI tasks x no OpenMP threads

MPI task timing breakdown:
Section |  min time  |  avg time  |  max time  |%varavg| %total
---------------------------------------------------------------
Pair    | 0.2278     | 0.26779    | 0.40537    |  11.4 | 29.53
Neigh   | 1.3041e-05 | 0.0017634  | 0.013726   |  10.8 |  0.19
Comm    | 0.00017005 | 0.020648   | 0.13335    |  30.4 |  2.28
Output  | 0.010005   | 0.010174   | 0.010435   |   0.2 |  1.12
Modify  | 0.38627    | 0.54633    | 0.60585    |  12.4 | 60.24
Other   |            | 0.06017    |            |       |  6.63

Nlocal:         597.25 ave        4631 max           0 min
Histogram: 7 0 0 0 0 0 0 0 0 1
Nghost:         110.25 ave         882 max           0 min
Histogram: 7 0 0 0 0 0 0 0 0 1
Neighs:        30753.9 ave      241637 max           0 min
Histogram: 7 0 0 0 0 0 0 0 0 1
FullNghs:      61506.8 ave      483266 max           0 min
Histogram: 7 0 0 0 0 0 0 0 0 1

Total # of neighbors = 492054
Ave neighs/atom = 102.98326
Neighbor list builds = 1
Dangerous builds = 0
0 atoms in group attached
4631 atoms in group initial
147 atoms in group added
dynamic group attached defined
Setting up Verlet run ...
  Unit style    : metal
  Current step  : 2000
  Time step     : 0.002
Per MPI rank memory allocation (min/avg/max) = 4.826 | 5.322 | 8.568 Mbytes
   Step          Temp          PotEng         KinEng         TotEng         Press     
      2000   371.26182     -15951.587      229.24516     -15722.342      55.202232    
      2050   381.26236     -15963.273      235.42025     -15727.852      20.163922    
Loop time of 0.680353 on 8 procs for 50 steps with 4778 atoms

Performance: 12.699 ns/day, 1.890 hours/ns, 73.491 timesteps/s, 351.141 katom-step/s
75.0% CPU use with 8 MPI tasks x no OpenMP threads

MPI task timing breakdown:
Section |  min time  |  avg time  |  max time  |%varavg| %total
---------------------------------------------------------------
Pair    | 0.21058    | 0.24417    | 0.35594    |   9.7 | 35.89
Neigh   | 2.525e-05  | 0.0036435  | 0.028475   |  15.5 |  0.54
Comm    | 0.00010054 | 0.01588    | 0.11505    |  29.9 |  2.33
Output  | 0.043115   | 0.057899   | 0.061677   |   2.5 |  8.51
Modify  | 0.21177    | 0.34686    | 0.39815    |  13.2 | 50.98
Other   |            | 0.0119     |            |       |  1.75

Nlocal:         597.25 ave        4631 max           0 min
Histogram: 7 0 0 0 0 0 0 0 0 1
Nghost:         110.25 ave         882 max           0 min
Histogram: 7 0 0 0 0 0 0 0 0 1
Neighs:        30767.6 ave      241507 max           0 min
Histogram: 7 0 0 0 0 0 0 0 0 1
FullNghs:      61535.2 ave      483014 max           0 min
Histogram: 7 0 0 0 0 0 0 0 0 1

Total # of neighbors = 492282
Ave neighs/atom = 103.03098
Neighbor list builds = 2
Dangerous builds = 0
0 atoms in group attached
4631 atoms in group initial
147 atoms in group added
dynamic group attached defined
Setting up Verlet run ...
  Unit style    : metal
  Current step  : 2050
  Time step     : 0.002
Per MPI rank memory allocation (min/avg/max) = 4.826 | 5.322 | 8.568 Mbytes
   Step          Temp          PotEng         KinEng         TotEng         Press     
      2050   381.26236     -15963.273      235.42025     -15727.852      20.163922    
      2100   362.89772     -15947.77       224.08053     -15723.689      12.630923    
Loop time of 0.653243 on 8 procs for 50 steps with 4778 atoms

Performance: 13.226 ns/day, 1.815 hours/ns, 76.541 timesteps/s, 365.714 katom-step/s
80.9% CPU use with 8 MPI tasks x no OpenMP threads

MPI task timing breakdown:
Section |  min time  |  avg time  |  max time  |%varavg| %total
---------------------------------------------------------------
Pair    | 0.20033    | 0.23502    | 0.35664    |  11.0 | 35.98
Neigh   | 2.6292e-05 | 0.0024644  | 0.019174   |  12.7 |  0.38
Comm    | 0.00010888 | 0.01388    | 0.0999     |  27.7 |  2.12
Output  | 0.0081737  | 0.011158   | 0.012169   |   1.6 |  1.71
Modify  | 0.23465    | 0.37356    | 0.42365    |  12.9 | 57.19
Other   |            | 0.01716    |            |       |  2.63

Nlocal:         597.25 ave        4631 max           0 min
Histogram: 7 0 0 0 0 0 0 0 0 1
Nghost:         110.25 ave         882 max           0 min
Histogram: 7 0 0 0 0 0 0 0 0 1
Neighs:          30692 ave      241574 max           0 min
Histogram: 7 0 0 0 0 0 0 0 0 1
FullNghs:        61384 ave      483148 max           0 min
Histogram: 7 0 0 0 0 0 0 0 0 1

Total # of neighbors = 491072
Ave neighs/atom = 102.77773
Neighbor list builds = 2
Dangerous builds = 0
0 atoms in group attached
4631 atoms in group initial
147 atoms in group added
dynamic group attached defined
Setting up Verlet run ...
  Unit style    : metal
  Current step  : 2100
  Time step     : 0.002
Per MPI rank memory allocation (min/avg/max) = 4.826 | 5.322 | 8.568 Mbytes
   Step          Temp          PotEng         KinEng         TotEng         Press     
      2100   362.89772     -15947.77       224.08053     -15723.689      12.630923    
      2150   353.50787     -15945.3        218.28252     -15727.017     -21.381034    
Loop time of 0.521046 on 8 procs for 50 steps with 4778 atoms

Performance: 16.582 ns/day, 1.447 hours/ns, 95.961 timesteps/s, 458.501 katom-step/s
82.7% CPU use with 8 MPI tasks x no OpenMP threads

MPI task timing breakdown:
Section |  min time  |  avg time  |  max time  |%varavg| %total
---------------------------------------------------------------
Pair    | 0.15096    | 0.19475    | 0.33267    |  13.5 | 37.38
Neigh   | 1.3917e-05 | 0.00081413 | 0.0062556  |   0.0 |  0.16
Comm    | 6.6793e-05 | 0.014644   | 0.10376    |  28.0 |  2.81
Output  | 0.028692   | 0.029647   | 0.030521   |   0.4 |  5.69
Modify  | 0.13317    | 0.2726     | 0.32445    |  15.3 | 52.32
Other   |            | 0.008594   |            |       |  1.65

Nlocal:         597.25 ave        4631 max           0 min
Histogram: 7 0 0 0 0 0 0 0 0 1
Nghost:         110.25 ave         882 max           0 min
Histogram: 7 0 0 0 0 0 0 0 0 1
Neighs:        30701.4 ave      241805 max           0 min
Histogram: 7 0 0 0 0 0 0 0 0 1
FullNghs:      61394.2 ave      483638 max           0 min
Histogram: 7 0 0 0 0 0 0 0 0 1

Total # of neighbors = 491154
Ave neighs/atom = 102.79489
Neighbor list builds = 1
Dangerous builds = 0
0 atoms in group attached
4631 atoms in group initial
147 atoms in group added
dynamic group attached defined
Setting up Verlet run ...
  Unit style    : metal
  Current step  : 2150
  Time step     : 0.002
Per MPI rank memory allocation (min/avg/max) = 4.826 | 5.322 | 8.568 Mbytes
   Step          Temp          PotEng         KinEng         TotEng         Press     
      2150   353.50787     -15945.3        218.28252     -15727.017     -21.381034    
      2200   359.90386     -15950.804      222.23189     -15728.572      62.719914    
Loop time of 0.657424 on 8 procs for 50 steps with 4778 atoms

Performance: 13.142 ns/day, 1.826 hours/ns, 76.054 timesteps/s, 363.388 katom-step/s
78.6% CPU use with 8 MPI tasks x no OpenMP threads

MPI task timing breakdown:
Section |  min time  |  avg time  |  max time  |%varavg| %total
---------------------------------------------------------------
Pair    | 0.21153    | 0.24847    | 0.38258    |  11.3 | 37.79
Neigh   | 1.3833e-05 | 0.00093737 | 0.0055238  |   0.0 |  0.14
Comm    | 7.8212e-05 | 0.017483   | 0.11391    |  28.2 |  2.66
Output  | 0.0051642  | 0.0051877  | 0.0052894  |   0.1 |  0.79
Modify  | 0.20883    | 0.35544    | 0.41427    |  13.8 | 54.07
Other   |            | 0.0299     |            |       |  4.55

Nlocal:         597.25 ave        4631 max           0 min
Histogram: 7 0 0 0 0 0 0 0 0 1
Nghost:         110.25 ave         882 max           0 min
Histogram: 7 0 0 0 0 0 0 0 0 1
Neighs:        30757.6 ave      241631 max           0 min
Histogram: 7 0 0 0 0 0 0 0 0 1
FullNghs:      61515.2 ave      483214 max           0 min
Histogram: 7 0 0 0 0 0 0 0 0 1

Total # of neighbors = 492122
Ave neighs/atom = 102.99749
Neighbor list builds = 1
Dangerous builds = 0
0 atoms in group attached
4631 atoms in group initial
147 atoms in group added
dynamic group attached defined
Setting up Verlet run ...
  Unit style    : metal
  Current step  : 2200
  Time step     : 0.002
Per MPI rank memory allocation (min/avg/max) = 4.826 | 5.322 | 8.568 Mbytes
   Step          Temp          PotEng         KinEng         TotEng         Press     
      2200   359.90386     -15950.804      222.23189     -15728.572      62.719914    
      2250   386.72959     -15963.162      238.79613     -15724.366      26.72497     
Loop time of 0.829553 on 8 procs for 50 steps with 4778 atoms

Performance: 10.415 ns/day, 2.304 hours/ns, 60.273 timesteps/s, 287.987 katom-step/s
76.5% CPU use with 8 MPI tasks x no OpenMP threads

MPI task timing breakdown:
Section |  min time  |  avg time  |  max time  |%varavg| %total
---------------------------------------------------------------
Pair    | 0.17532    | 0.22454    | 0.37509    |  13.8 | 27.07
Neigh   | 1.275e-05  | 0.00077171 | 0.0059112  |   0.0 |  0.09
Comm    | 0.00011812 | 0.020276   | 0.13026    |  30.0 |  2.44
Output  | 0.03436    | 0.036752   | 0.037809   |   0.7 |  4.43
Modify  | 0.34417    | 0.51575    | 0.5814     |  13.0 | 62.17
Other   |            | 0.03146    |            |       |  3.79

Nlocal:         597.25 ave        4631 max           0 min
Histogram: 7 0 0 0 0 0 0 0 0 1
Nghost:         110.25 ave         882 max           0 min
Histogram: 7 0 0 0 0 0 0 0 0 1
Neighs:        30816.5 ave      241646 max           0 min
Histogram: 7 0 0 0 0 0 0 0 0 1
FullNghs:      61614.5 ave      483216 max           0 min
Histogram: 7 0 0 0 0 0 0 0 0 1

Total # of neighbors = 492916
Ave neighs/atom = 103.16367
[...]
Output  | 0.005785   | 0.006132   | 0.0063878  |   0.3 |  0.95
Modify  | 0.15704    | 0.32325    | 0.38822    |  16.8 | 50.03
Other   |            | 0.00873    |            |       |  1.35

Nlocal:        652.375 ave        4631 max           0 min
Histogram: 7 0 0 0 0 0 0 0 0 1
Nghost:            112 ave         882 max           0 min
Histogram: 7 0 0 0 0 0 0 0 0 1
Neighs:        32302.8 ave      241675 max           0 min
Histogram: 7 0 0 0 0 0 0 0 0 1
FullNghs:      64605.5 ave      483346 max           0 min
Histogram: 7 0 0 0 0 0 0 0 0 1

Total # of neighbors = 516844
Ave neighs/atom = 99.031232
Neighbor list builds = 1
Dangerous builds = 0
0 atoms in group attached
4631 atoms in group initial
588 atoms in group added
dynamic group attached defined
Setting up Verlet run ...
  Unit style    : metal
  Current step  : 19450
  Time step     : 0.002
Per MPI rank memory allocation (min/avg/max) = 4.831 | 5.401 | 8.568 Mbytes
   Step          Temp          PotEng         KinEng         TotEng         Press     
     19450   533.63764     -17224.05       359.92762     -16864.122      29.938677    
     19500   530.61551     -17223.633      357.88925     -16865.743      4.3314238    
Loop time of 0.608604 on 8 procs for 50 steps with 5219 atoms

Performance: 14.196 ns/day, 1.691 hours/ns, 82.155 timesteps/s, 428.768 katom-step/s
83.9% CPU use with 8 MPI tasks x no OpenMP threads

MPI task timing breakdown:
Section |  min time  |  avg time  |  max time  |%varavg| %total
---------------------------------------------------------------
Pair    | 0.24567    | 0.28377    | 0.43559    |  12.0 | 46.63
Neigh   | 2.1333e-05 | 0.0011296  | 0.0081922  |   7.9 |  0.19
Comm    | 0.00012542 | 0.021559   | 0.12533    |  27.1 |  3.54
Output  | 0.011794   | 0.011848   | 0.011906   |   0.0 |  1.95
Modify  | 0.12967    | 0.28293    | 0.34354    |  16.6 | 46.49
Other   |            | 0.007371   |            |       |  1.21

Nlocal:        652.375 ave        4631 max           0 min
Histogram: 7 0 0 0 0 0 0 0 0 1
Nghost:         112.25 ave         882 max           0 min
Histogram: 7 0 0 0 0 0 0 0 0 1
Neighs:        32251.6 ave      241564 max           0 min
Histogram: 7 0 0 0 0 0 0 0 0 1
FullNghs:      64503.2 ave      483128 max           0 min
Histogram: 7 0 0 0 0 0 0 0 0 1

Total # of neighbors = 516026
Ave neighs/atom = 98.874497
Neighbor list builds = 1
Dangerous builds = 0
0 atoms in group attached
4631 atoms in group initial
588 atoms in group added
dynamic group attached defined
Setting up Verlet run ...
  Unit style    : metal
  Current step  : 19500
  Time step     : 0.002
Per MPI rank memory allocation (min/avg/max) = 4.831 | 5.401 | 8.568 Mbytes
   Step          Temp          PotEng         KinEng         TotEng         Press     
     19500   530.61551     -17223.633      357.88925     -16865.743      4.3314238    
     19550   533.46542     -17220.931      359.81145     -16861.12       22.416667    
Loop time of 0.651425 on 8 procs for 50 steps with 5219 atoms

Performance: 13.263 ns/day, 1.810 hours/ns, 76.755 timesteps/s, 400.583 katom-step/s
84.6% CPU use with 8 MPI tasks x no OpenMP threads

MPI task timing breakdown:
Section |  min time  |  avg time  |  max time  |%varavg| %total
---------------------------------------------------------------
Pair    | 0.24451    | 0.28983    | 0.44895    |  12.6 | 44.49
Neigh   | 5.3917e-05 | 0.0025909  | 0.019219   |  12.4 |  0.40
Comm    | 0.00013171 | 0.021591   | 0.13219    |  28.6 |  3.31
Output  | 0.0052934  | 0.0053712  | 0.005474   |   0.1 |  0.82
Modify  | 0.15753    | 0.32389    | 0.3918     |  16.7 | 49.72
Other   |            | 0.008148   |            |       |  1.25

Nlocal:        652.375 ave        4631 max           0 min
Histogram: 7 0 0 0 0 0 0 0 0 1
Nghost:            113 ave         882 max           0 min
Histogram: 7 0 0 0 0 0 0 0 0 1
Neighs:        32245.2 ave      241422 max           0 min
Histogram: 7 0 0 0 0 0 0 0 0 1
FullNghs:      64498.8 ave      482906 max           0 min
Histogram: 7 0 0 0 0 0 0 0 0 1

Total # of neighbors = 515990
Ave neighs/atom = 98.867599
Neighbor list builds = 2
Dangerous builds = 0
0 atoms in group attached
4631 atoms in group initial
588 atoms in group added
dynamic group attached defined
Setting up Verlet run ...
  Unit style    : metal
  Current step  : 19550
  Time step     : 0.002
Per MPI rank memory allocation (min/avg/max) = 4.831 | 5.401 | 8.568 Mbytes
   Step          Temp          PotEng         KinEng         TotEng         Press     
     19550   533.46542     -17220.931      359.81145     -16861.12       22.416667    
     19600   535.27034     -17224.661      361.02884     -16863.632      37.862813    
Loop time of 0.568673 on 8 procs for 50 steps with 5219 atoms

Performance: 15.193 ns/day, 1.580 hours/ns, 87.924 timesteps/s, 458.875 katom-step/s
84.5% CPU use with 8 MPI tasks x no OpenMP threads

MPI task timing breakdown:
Section |  min time  |  avg time  |  max time  |%varavg| %total
---------------------------------------------------------------
Pair    | 0.20552    | 0.24585    | 0.39893    |  12.7 | 43.23
Neigh   | 2.0292e-05 | 0.0014143  | 0.010505   |   9.1 |  0.25
Comm    | 9.2581e-05 | 0.020213   | 0.13244    |  30.1 |  3.55
Output  | 0.0058244  | 0.0058726  | 0.0059319  |   0.0 |  1.03
Modify  | 0.12821    | 0.2837     | 0.34467    |  16.5 | 49.89
Other   |            | 0.01163    |            |       |  2.04

Nlocal:        652.375 ave        4631 max           0 min
Histogram: 7 0 0 0 0 0 0 0 0 1
Nghost:         113.25 ave         882 max           0 min
Histogram: 7 0 0 0 0 0 0 0 0 1
Neighs:        32267.5 ave      241451 max           0 min
Histogram: 7 0 0 0 0 0 0 0 0 1
FullNghs:        64535 ave      482902 max           0 min
Histogram: 7 0 0 0 0 0 0 0 0 1

Total # of neighbors = 516280
Ave neighs/atom = 98.923165
Neighbor list builds = 1
Dangerous builds = 0
0 atoms in group attached
4631 atoms in group initial
588 atoms in group added
dynamic group attached defined
Setting up Verlet run ...
  Unit style    : metal
  Current step  : 19600
  Time step     : 0.002
Per MPI rank memory allocation (min/avg/max) = 4.831 | 5.401 | 8.568 Mbytes
   Step          Temp          PotEng         KinEng         TotEng         Press     
     19600   535.27034     -17224.661      361.02884     -16863.632      37.862813    
     19650   533.73502     -17224.092      359.9933      -16864.099      38.211084    
Loop time of 0.599697 on 8 procs for 50 steps with 5219 atoms

Performance: 14.407 ns/day, 1.666 hours/ns, 83.375 timesteps/s, 435.136 katom-step/s
81.1% CPU use with 8 MPI tasks x no OpenMP threads

MPI task timing breakdown:
Section |  min time  |  avg time  |  max time  |%varavg| %total
---------------------------------------------------------------
Pair    | 0.23841    | 0.28176    | 0.43651    |  12.1 | 46.98
Neigh   | 1.75e-05   | 0.0013041  | 0.0096161  |   8.7 |  0.22
Comm    | 0.00010075 | 0.020784   | 0.12959    |  28.8 |  3.47
Output  | 0.005648   | 0.0057855  | 0.005943   |   0.1 |  0.96
Modify  | 0.12627    | 0.28095    | 0.34774    |  16.8 | 46.85
Other   |            | 0.00911    |            |       |  1.52

Nlocal:        652.375 ave        4631 max           0 min
Histogram: 7 0 0 0 0 0 0 0 0 1
Nghost:        114.375 ave         882 max           0 min
Histogram: 7 0 0 0 0 0 0 0 0 1
Neighs:          32335 ave      241894 max           0 min
Histogram: 7 0 0 0 0 0 0 0 0 1
FullNghs:        64670 ave      483788 max           0 min
Histogram: 7 0 0 0 0 0 0 0 0 1

Total # of neighbors = 517360
Ave neighs/atom = 99.130102
Neighbor list builds = 1
Dangerous builds = 0
0 atoms in group attached
4631 atoms in group initial
588 atoms in group added
dynamic group attached defined
Setting up Verlet run ...
  Unit style    : metal
  Current step  : 19650
  Time step     : 0.002
Per MPI rank memory allocation (min/avg/max) = 4.831 | 5.401 | 8.568 Mbytes
   Step          Temp          PotEng         KinEng         TotEng         Press     
     19650   533.73502     -17224.092      359.9933      -16864.099      38.211084    
     19700   540.23235     -17229.319      364.37561     -16864.943      12.889441    
Loop time of 0.774475 on 8 procs for 50 steps with 5219 atoms

Performance: 11.156 ns/day, 2.151 hours/ns, 64.560 timesteps/s, 336.938 katom-step/s
72.8% CPU use with 8 MPI tasks x no OpenMP threads

MPI task timing breakdown:
Section |  min time  |  avg time  |  max time  |%varavg| %total
---------------------------------------------------------------
Pair    | 0.26892    | 0.31119    | 0.47434    |  12.2 | 40.18
Neigh   | 4.2457e-05 | 0.0031534  | 0.02365    |  13.8 |  0.41
Comm    | 0.000123   | 0.025381   | 0.15765    |  31.8 |  3.28
Output  | 0.014493   | 0.014674   | 0.014775   |   0.1 |  1.89
Modify  | 0.21547    | 0.40129    | 0.47954    |  16.7 | 51.81
Other   |            | 0.01879    |            |       |  2.43

Nlocal:        652.375 ave        4631 max           0 min
Histogram: 7 0 0 0 0 0 0 0 0 1
Nghost:          115.5 ave         882 max           0 min
Histogram: 7 0 0 0 0 0 0 0 0 1
Neighs:        32280.8 ave      241810 max           0 min
Histogram: 7 0 0 0 0 0 0 0 0 1
FullNghs:      64561.5 ave      483620 max           0 min
Histogram: 7 0 0 0 0 0 0 0 0 1

Total # of neighbors = 516492
Ave neighs/atom = 98.963786
Neighbor list builds = 2
Dangerous builds = 0
0 atoms in group attached
4631 atoms in group initial
588 atoms in group added
dynamic group attached defined
Setting up Verlet run ...
  Unit style    : metal
  Current step  : 19700
  Time step     : 0.002
Per MPI rank memory allocation (min/avg/max) = 4.831 | 5.401 | 8.568 Mbytes
   Step          Temp          PotEng         KinEng         TotEng         Press     
     19700   540.23235     -17229.319      364.37561     -16864.943      12.889441    
     19750   534.13375     -17223.381      360.26223     -16863.118      35.331282    
Loop time of 0.702498 on 8 procs for 50 steps with 5219 atoms

Performance: 12.299 ns/day, 1.951 hours/ns, 71.175 timesteps/s, 371.460 katom-step/s
79.5% CPU use with 8 MPI tasks x no OpenMP threads

MPI task timing breakdown:
Section |  min time  |  avg time  |  max time  |%varavg| %total
---------------------------------------------------------------
Pair    | 0.24593    | 0.28501    | 0.43464    |  11.8 | 40.57
Neigh   | 5.1583e-05 | 0.0026389  | 0.01947    |  12.4 |  0.38
Comm    | 0.00015392 | 0.019891   | 0.12623    |  28.7 |  2.83
Output  | 0.0095149  | 0.009607   | 0.0097015  |   0.1 |  1.37
Modify  | 0.21047    | 0.36972    | 0.43421    |  14.8 | 52.63
Other   |            | 0.01563    |            |       |  2.22

Nlocal:        652.375 ave        4631 max           0 min
Histogram: 7 0 0 0 0 0 0 0 0 1
Nghost:        116.125 ave         882 max           0 min
Histogram: 7 0 0 0 0 0 0 0 0 1
Neighs:        32292.6 ave      241752 max           0 min
Histogram: 7 0 0 0 0 0 0 0 0 1
FullNghs:        64592 ave      483564 max           0 min
Histogram: 7 0 0 0 0 0 0 0 0 1

Total # of neighbors = 516736
Ave neighs/atom = 99.010538
Neighbor list builds = 2
Dangerous builds = 0
0 atoms in group attached
4631 atoms in group initial
588 atoms in group added
dynamic group attached defined
Setting up Verlet run ...
  Unit style    : metal
  Current step  : 19750
  Time step     : 0.002
Per MPI rank memory allocation (min/avg/max) = 4.831 | 5.401 | 8.568 Mbytes
   Step          Temp          PotEng         KinEng         TotEng         Press     
     19750   534.13375     -17223.381      360.26223     -16863.118      35.331282    
     19800   541.35909     -17230.126      365.13557     -16864.99       24.924145    
Loop time of 0.716654 on 8 procs for 50 steps with 5219 atoms

Performance: 12.056 ns/day, 1.991 hours/ns, 69.769 timesteps/s, 364.123 katom-step/s
80.2% CPU use with 8 MPI tasks x no OpenMP threads

MPI task timing breakdown:
Section |  min time  |  avg time  |  max time  |%varavg| %total
---------------------------------------------------------------
Pair    | 0.25159    | 0.29967    | 0.44207    |  11.0 | 41.81
Neigh   | 5.3083e-05 | 0.0030535  | 0.022371   |  13.2 |  0.43
Comm    | 0.0024673  | 0.025887   | 0.13347    |  25.4 |  3.61
Output  | 0.0059008  | 0.0059655  | 0.0060343  |   0.0 |  0.83
Modify  | 0.21129    | 0.36245    | 0.42638    |  14.6 | 50.57
Other   |            | 0.01963    |            |       |  2.74

Nlocal:        652.375 ave        4631 max           0 min
Histogram: 7 0 0 0 0 0 0 0 0 1
Nghost:        116.875 ave         882 max           0 min
Histogram: 7 0 0 0 0 0 0 0 0 1
Neighs:        32312.5 ave      241773 max           0 min
Histogram: 7 0 0 0 0 0 0 0 0 1
FullNghs:        64625 ave      483546 max           0 min
Histogram: 7 0 0 0 0 0 0 0 0 1

Total # of neighbors = 517000
Ave neighs/atom = 99.061123
Neighbor list builds = 2
Dangerous builds = 0
0 atoms in group attached
4631 atoms in group initial
588 atoms in group added
dynamic group attached defined
Setting up Verlet run ...
  Unit style    : metal
  Current step  : 19800
  Time step     : 0.002
Per MPI rank memory allocation (min/avg/max) = 4.831 | 5.401 | 8.568 Mbytes
   Step          Temp          PotEng         KinEng         TotEng         Press     
     19800   541.35909     -17230.126      365.13557     -16864.99       24.924145    
     19850   535.76892     -17225.467      361.36512     -16864.102      30.155866    
Loop time of 0.683097 on 8 procs for 50 steps with 5219 atoms

Performance: 12.648 ns/day, 1.897 hours/ns, 73.196 timesteps/s, 382.010 katom-step/s
80.2% CPU use with 8 MPI tasks x no OpenMP threads

MPI task timing breakdown:
Section |  min time  |  avg time  |  max time  |%varavg| %total
---------------------------------------------------------------
Pair    | 0.2479     | 0.28983    | 0.44846    |  12.2 | 42.43
Neigh   | 1.925e-05  | 0.0015179  | 0.01134    |   9.5 |  0.22
Comm    | 0.00010876 | 0.02371    | 0.13603    |  28.0 |  3.47
Output  | 0.011767   | 0.012169   | 0.013527   |   0.5 |  1.78
Modify  | 0.19075    | 0.34574    | 0.40872    |  15.2 | 50.61
Other   |            | 0.01013    |            |       |  1.48

Nlocal:        652.375 ave        4631 max           0 min
Histogram: 7 0 0 0 0 0 0 0 0 1
Nghost:         117.75 ave         882 max           0 min
Histogram: 7 0 0 0 0 0 0 0 0 1
Neighs:        32289.8 ave      241609 max           0 min
Histogram: 7 0 0 0 0 0 0 0 0 1
FullNghs:      64579.5 ave      483218 max           0 min
Histogram: 7 0 0 0 0 0 0 0 0 1

Total # of neighbors = 516636
Ave neighs/atom = 98.991378
Neighbor list builds = 1
Dangerous builds = 0
0 atoms in group attached
4631 atoms in group initial
588 atoms in group added
dynamic group attached defined
Setting up Verlet run ...
  Unit style    : metal
  Current step  : 19850
  Time step     : 0.002
Per MPI rank memory allocation (min/avg/max) = 4.831 | 5.401 | 8.568 Mbytes
   Step          Temp          PotEng         KinEng         TotEng         Press     
     19850   535.76892     -17225.467      361.36512     -16864.102      30.155866    
     19900   529.10293     -17222          356.86905     -16865.131      30.153985    
Loop time of 0.601581 on 8 procs for 50 steps with 5219 atoms

Performance: 14.362 ns/day, 1.671 hours/ns, 83.114 timesteps/s, 433.774 katom-step/s
81.0% CPU use with 8 MPI tasks x no OpenMP threads

MPI task timing breakdown:
Section |  min time  |  avg time  |  max time  |%varavg| %total
---------------------------------------------------------------
Pair    | 0.22442    | 0.26324    | 0.41507    |  12.3 | 43.76
Neigh   | 2.0416e-05 | 0.0012258  | 0.0090583  |   8.5 |  0.20
Comm    | 8.3048e-05 | 0.020382   | 0.12691    |  28.5 |  3.39
Output  | 0.012795   | 0.015063   | 0.016404   |   1.3 |  2.50
Modify  | 0.13438    | 0.28698    | 0.34671    |  16.5 | 47.70
Other   |            | 0.01469    |            |       |  2.44

Nlocal:        652.375 ave        4631 max           0 min
Histogram: 7 0 0 0 0 0 0 0 0 1
Nghost:            119 ave         882 max           0 min
Histogram: 7 0 0 0 0 0 0 0 0 1
Neighs:        32295.6 ave      241818 max           0 min
Histogram: 7 0 0 0 0 0 0 0 0 1
FullNghs:      64591.2 ave      483636 max           0 min
Histogram: 7 0 0 0 0 0 0 0 0 1

Total # of neighbors = 516730
Ave neighs/atom = 99.009389
Neighbor list builds = 1
Dangerous builds = 0
0 atoms in group attached
4631 atoms in group initial
588 atoms in group added
dynamic group attached defined
Setting up Verlet run ...
  Unit style    : metal
  Current step  : 19900
  Time step     : 0.002
Per MPI rank memory allocation (min/avg/max) = 4.831 | 5.401 | 8.568 Mbytes
   Step          Temp          PotEng         KinEng         TotEng         Press     
     19900   529.10293     -17222          356.86905     -16865.131      30.153985    
     19950   525.33779     -17224.513      354.32953     -16870.183      18.923861    
Loop time of 0.580311 on 8 procs for 50 steps with 5219 atoms

Performance: 14.889 ns/day, 1.612 hours/ns, 86.161 timesteps/s, 449.673 katom-step/s
81.4% CPU use with 8 MPI tasks x no OpenMP threads

MPI task timing breakdown:
Section |  min time  |  avg time  |  max time  |%varavg| %total
---------------------------------------------------------------
Pair    | 0.24044    | 0.27557    | 0.40945    |  10.8 | 47.49
Neigh   | 1.9541e-05 | 0.0016975  | 0.012799   |  10.2 |  0.29
Comm    | 0.00010221 | 0.020224   | 0.12015    |  27.1 |  3.48
Output  | 0.0068821  | 0.0076295  | 0.0095102  |   1.2 |  1.31
Modify  | 0.11898    | 0.26612    | 0.323      |  16.4 | 45.86
Other   |            | 0.009065   |            |       |  1.56

Nlocal:        652.375 ave        4631 max           0 min
Histogram: 7 0 0 0 0 0 0 0 0 1
Nghost:        119.375 ave         882 max           0 min
Histogram: 7 0 0 0 0 0 0 0 0 1
Neighs:          32290 ave      241936 max           0 min
Histogram: 7 0 0 0 0 0 0 0 0 1
FullNghs:        64580 ave      483872 max           0 min
Histogram: 7 0 0 0 0 0 0 0 0 1

Total # of neighbors = 516640
Ave neighs/atom = 98.992144
Neighbor list builds = 1
Dangerous builds = 0
0 atoms in group attached
4631 atoms in group initial
588 atoms in group added
dynamic group attached defined
Setting up Verlet run ...
  Unit style    : metal
  Current step  : 19950
  Time step     : 0.002
Per MPI rank memory allocation (min/avg/max) = 4.831 | 5.401 | 8.568 Mbytes
   Step          Temp          PotEng         KinEng         TotEng         Press     
     19950   525.33779     -17224.513      354.32953     -16870.183      18.923861    
     20000   532.7256      -17232.491      359.31247     -16873.179      31.994234    
Loop time of 0.647339 on 8 procs for 50 steps with 5219 atoms

Performance: 13.347 ns/day, 1.798 hours/ns, 77.239 timesteps/s, 403.112 katom-step/s
81.4% CPU use with 8 MPI tasks x no OpenMP threads

MPI task timing breakdown:
Section |  min time  |  avg time  |  max time  |%varavg| %total
---------------------------------------------------------------
Pair    | 0.24137    | 0.28631    | 0.45596    |  13.6 | 44.23
Neigh   | 1.9584e-05 | 0.0016497  | 0.012453   |  10.1 |  0.25
Comm    | 8.4163e-05 | 0.022096   | 0.1338     |  29.0 |  3.41
Output  | 0.0061305  | 0.0062079  | 0.0063137  |   0.1 |  0.96
Modify  | 0.14553    | 0.32333    | 0.39105    |  18.0 | 49.95
Other   |            | 0.007747   |            |       |  1.20

Nlocal:        652.375 ave        4631 max           0 min
Histogram: 7 0 0 0 0 0 0 0 0 1
Nghost:        120.625 ave         882 max           0 min
Histogram: 7 0 0 0 0 0 0 0 0 1
Neighs:        32328.5 ave      242081 max           0 min
Histogram: 7 0 0 0 0 0 0 0 0 1
FullNghs:        64648 ave      484104 max           0 min
Histogram: 7 0 0 0 0 0 0 0 0 1

Total # of neighbors = 517184
Ave neighs/atom = 99.096379
Neighbor list builds = 1
Dangerous builds = 0
0 atoms in group attached
4631 atoms in group initial
588 atoms in group added
dynamic group attached defined
Total wall time: 0:05:09
